<?xml version="1.0"?>
<!-- openLBMflow v1.0.1, www.lbmflow.com -->
<VTKFile type="ImageData" version="0.1" byte_order="LittleEndian">
  <ImageData WholeExtent="0 9 0 9 0 9" Origin="0 0 0" Spacing="1 1 1">
  <Piece Extent="0 9 0 9 0 9">
    <PointData Scalars="scalars">
      <DataArray type="Float32" Name="Velocity" NumberOfComponents="3" format="ascii">
0.0000e+00 0.0000e+00 0.0000e+00 0.0000e+00 0.0000e+00 0.0000e+00 0.0000e+00 0.0000e+00 0.0000e+00 0.0000e+00 0.0000e+00 0.0000e+00 0.0000e+00 0.0000e+00 0.0000e+00 0.0000e+00 0.0000e+00 0.0000e+00 0.0000e+00 0.0000e+00 0.0000e+00 0.0000e+00 0.0000e+00 0.0000e+00 0.0000e+00 0.0000e+00 0.0000e+00 0.0000e+00 0.0000e+00 0.0000e+00 
0.0000e+00 0.0000e+00 0.0000e+00 0.0000e+00 0.0000e+00 0.0000e+00 0.0000e+00 0.0000e+00 0.0000e+00 0.0000e+00 0.0000e+00 0.0000e+00 0.0000e+00 0.0000e+00 0.0000e+00 0.0000e+00 0.0000e+00 0.0000e+00 0.0000e+00 0.0000e+00 0.0000e+00 0.0000e+00 0.0000e+00 0.0000e+00 0.0000e+00 0.0000e+00 0.0000e+00 0.0000e+00 0.0000e+00 0.0000e+00 
0.0000e+00 0.0000e+00 0.0000e+00 0.0000e+00 0.0000e+00 0.0000e+00 0.0000e+00 0.0000e+00 0.0000e+00 0.0000e+00 0.0000e+00 0.0000e+00 0.0000e+00 0.0000e+00 0.0000e+00 0.0000e+00 0.0000e+00 0.0000e+00 0.0000e+00 0.0000e+00 0.0000e+00 0.0000e+00 0.0000e+00 0.0000e+00 0.0000e+00 0.0000e+00 0.0000e+00 0.0000e+00 0.0000e+00 0.0000e+00 
0.0000e+00 0.0000e+00 0.0000e+00 0.0000e+00 0.0000e+00 0.0000e+00 0.0000e+00 0.0000e+00 0.0000e+00 0.0000e+00 0.0000e+00 0.0000e+00 0.0000e+00 0.0000e+00 0.0000e+00 0.0000e+00 0.0000e+00 0.0000e+00 0.0000e+00 0.0000e+00 0.0000e+00 0.0000e+00 0.0000e+00 0.0000e+00 0.0000e+00 0.0000e+00 0.0000e+00 0.0000e+00 0.0000e+00 0.0000e+00 
0.0000e+00 0.0000e+00 0.0000e+00 0.0000e+00 0.0000e+00 0.0000e+00 0.0000e+00 0.0000e+00 0.0000e+00 0.0000e+00 0.0000e+00 0.0000e+00 0.0000e+00 0.0000e+00 0.0000e+00 0.0000e+00 0.0000e+00 0.0000e+00 0.0000e+00 0.0000e+00 0.0000e+00 0.0000e+00 0.0000e+00 0.0000e+00 0.0000e+00 0.0000e+00 0.0000e+00 0.0000e+00 0.0000e+00 0.0000e+00 
0.0000e+00 0.0000e+00 0.0000e+00 0.0000e+00 0.0000e+00 0.0000e+00 0.0000e+00 0.0000e+00 0.0000e+00 0.0000e+00 0.0000e+00 0.0000e+00 0.0000e+00 0.0000e+00 0.0000e+00 0.0000e+00 0.0000e+00 0.0000e+00 0.0000e+00 0.0000e+00 0.0000e+00 0.0000e+00 0.0000e+00 0.0000e+00 0.0000e+00 0.0000e+00 0.0000e+00 0.0000e+00 0.0000e+00 0.0000e+00 
0.0000e+00 0.0000e+00 0.0000e+00 0.0000e+00 0.0000e+00 0.0000e+00 0.0000e+00 0.0000e+00 0.0000e+00 0.0000e+00 0.0000e+00 0.0000e+00 0.0000e+00 0.0000e+00 0.0000e+00 0.0000e+00 0.0000e+00 0.0000e+00 0.0000e+00 0.0000e+00 0.0000e+00 0.0000e+00 0.0000e+00 0.0000e+00 0.0000e+00 0.0000e+00 0.0000e+00 0.0000e+00 0.0000e+00 0.0000e+00 
0.0000e+00 0.0000e+00 0.0000e+00 0.0000e+00 0.0000e+00 0.0000e+00 0.0000e+00 0.0000e+00 0.0000e+00 0.0000e+00 0.0000e+00 0.0000e+00 0.0000e+00 0.0000e+00 0.0000e+00 0.0000e+00 0.0000e+00 0.0000e+00 0.0000e+00 0.0000e+00 0.0000e+00 0.0000e+00 0.0000e+00 0.0000e+00 0.0000e+00 0.0000e+00 0.0000e+00 0.0000e+00 0.0000e+00 0.0000e+00 
0.0000e+00 0.0000e+00 0.0000e+00 0.0000e+00 0.0000e+00 0.0000e+00 0.0000e+00 0.0000e+00 0.0000e+00 0.0000e+00 0.0000e+00 0.0000e+00 0.0000e+00 0.0000e+00 0.0000e+00 0.0000e+00 0.0000e+00 0.0000e+00 0.0000e+00 0.0000e+00 0.0000e+00 0.0000e+00 0.0000e+00 0.0000e+00 0.0000e+00 0.0000e+00 0.0000e+00 0.0000e+00 0.0000e+00 0.0000e+00 
0.0000e+00 0.0000e+00 0.0000e+00 0.0000e+00 0.0000e+00 0.0000e+00 0.0000e+00 0.0000e+00 0.0000e+00 0.0000e+00 0.0000e+00 0.0000e+00 0.0000e+00 0.0000e+00 0.0000e+00 0.0000e+00 0.0000e+00 0.0000e+00 0.0000e+00 0.0000e+00 0.0000e+00 0.0000e+00 0.0000e+00 0.0000e+00 0.0000e+00 0.0000e+00 0.0000e+00 0.0000e+00 0.0000e+00 0.0000e+00 
0.0000e+00 0.0000e+00 0.0000e+00 0.0000e+00 0.0000e+00 0.0000e+00 0.0000e+00 0.0000e+00 0.0000e+00 0.0000e+00 0.0000e+00 0.0000e+00 0.0000e+00 0.0000e+00 0.0000e+00 0.0000e+00 0.0000e+00 0.0000e+00 0.0000e+00 0.0000e+00 0.0000e+00 0.0000e+00 0.0000e+00 0.0000e+00 0.0000e+00 0.0000e+00 0.0000e+00 0.0000e+00 0.0000e+00 0.0000e+00 
2.7760e-03 8.1185e-05 3.3115e-06 -1.3859e-03 1.3496e-06 -2.7703e-07 2.4698e-03 -5.5639e-05 1.8380e-05 -7.4991e-04 2.6418e-05 6.0527e-06 2.7787e-03 5.3162e-05 3.1381e-06 -1.6370e-03 3.0596e-05 8.1868e-06 2.9957e-03 1.7603e-04 -8.9345e-06 -1.7926e-03 -1.5432e-05 -3.2156e-05 2.8556e-03 -1.9358e-04 -1.9886e-05 -1.6191e-03 1.1603e-04 3.7325e-05 
3.3864e-03 -8.8461e-05 4.9522e-05 -9.1226e-04 -8.4759e-05 2.5964e-05 3.2917e-03 -6.7123e-07 -7.5765e-06 -9.5580e-04 5.9018e-05 -2.3845e-07 3.3393e-03 -2.5376e-05 1.9880e-05 -1.0230e-03 3.2040e-05 -1.2310e-05 3.4974e-03 -9.2649e-05 -3.3128e-05 -1.1450e-03 -1.0135e-04 -1.0301e-04 3.5369e-03 4.7812e-05 -5.8215e-05 -9.1134e-04 -7.1490e-05 1.3884e-04 
3.9241e-03 -1.9844e-04 2.2270e-05 -6.6736e-04 4.1748e-05 3.5817e-05 3.5838e-03 4.8518e-05 4.4906e-06 -7.4826e-04 4.0729e-05 1.9950e-06 3.6324e-03 4.4506e-05 -1.9031e-05 -6.7082e-04 5.2602e-05 -1.4777e-05 3.6939e-03 3.0889e-05 -8.7838e-05 -5.5832e-04 3.4899e-05 -1.1844e-04 4.0088e-03 2.3147e-04 4.3994e-05 -8.0502e-04 -2.2813e-05 1.5276e-04 
4.1333e-03 9.9709e-05 3.1609e-05 -5.1897e-04 -1.5387e-05 3.1309e-05 3.6913e-03 -1.7925e-05 2.0482e-05 -5.9861e-04 -4.1454e-05 2.4434e-06 3.8158e-03 4.6979e-05 -6.2341e-06 -5.7424e-04 -6.0831e-05 -4.9028e-05 4.1438e-03 1.4049e-04 -9.3628e-05 -5.9757e-04 1.7740e-05 -1.9210e-05 4.3757e-03 -3.9481e-04 -6.4075e-05 -9.1204e-04 2.3128e-05 9.8503e-05 
3.8014e-03 2.1249e-04 6.2187e-05 -4.8945e-04 3.7847e-05 1.5731e-05 3.6416e-03 4.0461e-05 3.1236e-05 -5.4278e-04 3.3158e-05 -1.5840e-05 3.8582e-03 4.0544e-05 3.0044e-05 -7.1257e-04 -5.4366e-06 -3.9475e-05 4.5716e-03 1.1132e-04 -1.1127e-04 -1.0209e-03 -1.9438e-05 -4.3330e-06 4.5171e-03 -2.8356e-04 -6.8984e-05 -3.8238e-04 5.9895e-05 3.9225e-05 
3.4838e-03 -1.1113e-04 3.6051e-06 -5.5506e-04 -4.0240e-05 4.3941e-06 3.4720e-03 -5.2076e-05 1.5703e-05 -6.2955e-04 -2.5948e-05 -1.5630e-05 3.6290e-03 -1.0481e-04 8.4923e-06 -7.0154e-04 -3.1065e-05 -3.4442e-05 4.3930e-03 -9.6903e-06 -5.6268e-05 -1.0523e-03 -6.4147e-05 -6.3298e-06 4.3323e-03 8.9465e-05 -4.7513e-05 -6.2697e-04 -6.3313e-06 6.7156e-05 
3.1937e-03 8.1203e-05 -1.2833e-05 -8.3674e-04 4.3493e-05 1.0675e-05 3.1489e-03 1.5838e-05 9.5076e-06 -8.7175e-04 3.7033e-05 -5.2741e-06 3.2141e-03 2.6212e-05 -1.4945e-05 -8.7625e-04 2.9238e-05 -2.8065e-05 3.7363e-03 -1.6197e-04 -4.0231e-05 -1.2753e-03 2.2198e-05 -3.8085e-05 3.8590e-03 1.9846e-04 -5.1387e-05 -9.5988e-04 3.3047e-05 9.5887e-05 
2.5835e-03 -4.5046e-05 -1.4209e-07 -1.4040e-03 -7.4075e-05 -1.7773e-06 2.5780e-03 -6.1975e-05 1.0058e-05 -1.4084e-03 -4.8560e-05 3.5232e-06 2.6105e-03 -5.1703e-05 -7.1438e-06 -1.4487e-03 -1.1997e-05 -1.3480e-05 2.8062e-03 -1.8695e-04 -2.8206e-05 -1.4965e-03 9.2622e-05 -1.8022e-05 2.7556e-03 1.4543e-04 -7.5272e-06 -1.4133e-03 -1.8593e-04 2.2199e-05 
0.0000e+00 0.0000e+00 0.0000e+00 0.0000e+00 0.0000e+00 0.0000e+00 0.0000e+00 0.0000e+00 0.0000e+00 0.0000e+00 0.0000e+00 0.0000e+00 0.0000e+00 0.0000e+00 0.0000e+00 0.0000e+00 0.0000e+00 0.0000e+00 0.0000e+00 0.0000e+00 0.0000e+00 0.0000e+00 0.0000e+00 0.0000e+00 0.0000e+00 0.0000e+00 0.0000e+00 0.0000e+00 0.0000e+00 0.0000e+00 
0.0000e+00 0.0000e+00 0.0000e+00 0.0000e+00 0.0000e+00 0.0000e+00 0.0000e+00 0.0000e+00 0.0000e+00 0.0000e+00 0.0000e+00 0.0000e+00 0.0000e+00 0.0000e+00 0.0000e+00 0.0000e+00 0.0000e+00 0.0000e+00 0.0000e+00 0.0000e+00 0.0000e+00 0.0000e+00 0.0000e+00 0.0000e+00 0.0000e+00 0.0000e+00 0.0000e+00 0.0000e+00 0.0000e+00 0.0000e+00 
3.3283e-03 -2.7342e-05 5.9500e-05 -9.5485e-04 2.7143e-05 -3.3886e-05 3.2715e-03 1.4032e-05 5.9210e-06 -9.9942e-04 3.4534e-05 6.4518e-05 3.3172e-03 5.1016e-05 -3.0722e-05 -1.1349e-03 2.3865e-05 -3.3429e-05 3.3968e-03 5.6917e-05 -8.4325e-05 -1.1294e-03 6.6946e-05 -2.4970e-05 3.3907e-03 5.2193e-06 6.0724e-05 -1.0769e-03 3.5629e-05 3.8091e-05 
4.6996e-03 -5.7712e-05 6.7569e-05 3.1531e-04 -3.1025e-05 5.5755e-05 4.5908e-03 -2.2392e-05 2.8359e-05 2.5096e-04 -1.8108e-05 -1.1522e-05 4.6324e-03 -1.8732e-05 -4.6883e-05 2.3029e-04 1.3271e-05 -8.3977e-05 4.7599e-03 -1.6063e-05 -1.1470e-04 2.5874e-04 -3.0139e-05 4.0070e-06 4.7372e-03 -6.3645e-05 1.0243e-04 2.9671e-04 -1.0513e-04 6.8151e-05 
5.4781e-03 5.4081e-05 1.5399e-04 1.0431e-03 4.3122e-05 6.0302e-05 5.3349e-03 4.2589e-05 2.1364e-05 1.0148e-03 6.3652e-05 -6.2020e-06 5.3714e-03 6.4633e-05 -3.4210e-05 1.0564e-03 5.4730e-05 -1.0195e-04 5.4752e-03 1.9102e-05 -7.6771e-05 1.0730e-03 -1.9895e-05 1.6069e-05 5.4812e-03 8.8116e-06 -3.0328e-05 1.0860e-03 3.4957e-05 1.1550e-04 
5.8738e-03 1.2907e-06 2.8925e-04 1.4090e-03 -5.6430e-05 7.0740e-05 5.6618e-03 -2.8528e-05 1.4464e-05 1.4116e-03 -2.1026e-05 -1.7731e-05 5.7279e-03 3.4406e-06 -7.2074e-05 1.4216e-03 -1.7472e-05 -9.2572e-05 5.8166e-03 -7.1738e-05 -1.0706e-04 1.4585e-03 -5.0564e-05 -4.8654e-05 5.9757e-03 -5.0935e-05 -1.1425e-04 1.4718e-03 1.3525e-05 1.1825e-04 
5.5834e-03 2.8994e-05 4.4698e-05 1.4780e-03 2.8639e-05 6.7523e-05 5.6340e-03 2.6591e-05 1.6834e-06 1.4751e-03 2.9322e-05 -1.6523e-05 5.7608e-03 5.2571e-05 -1.4606e-04 1.4358e-03 5.8259e-05 -7.2189e-05 6.0128e-03 1.8643e-05 -2.3687e-04 1.2573e-03 2.0952e-05 -3.2503e-04 5.9228e-03 6.3576e-05 3.1129e-04 1.2908e-03 3.1905e-05 3.2408e-04 
5.2525e-03 -7.7132e-05 9.5216e-05 1.1771e-03 -3.8599e-05 5.3572e-05 5.2414e-03 -5.2581e-05 -1.9306e-05 1.2025e-03 -4.6801e-05 -2.5695e-05 5.3490e-03 -4.9557e-05 -8.2929e-05 1.1695e-03 -3.8108e-05 -6.3569e-05 5.5617e-03 2.2857e-05 -2.3994e-04 1.2119e-03 -1.2155e-05 -1.5673e-05 5.5356e-03 -1.7807e-05 2.1462e-04 1.2145e-03 -6.1013e-05 6.6085e-05 
4.4929e-03 2.8489e-05 9.8094e-05 4.4630e-04 2.2850e-05 2.9441e-05 4.4562e-03 3.4627e-05 -7.2990e-06 4.8425e-04 1.7886e-05 -2.7065e-05 4.5281e-03 1.7590e-05 -4.3224e-05 4.7517e-04 2.6604e-05 -4.8920e-05 4.7163e-03 5.1663e-05 -2.1981e-04 4.3672e-04 5.9097e-05 1.2896e-05 4.7106e-03 5.3823e-05 1.6269e-04 4.2721e-04 1.9780e-05 1.3817e-05 
3.1135e-03 -3.7569e-05 2.6637e-05 -8.5099e-04 -5.9630e-05 2.9226e-05 3.1079e-03 -3.5355e-05 -5.8633e-07 -8.5237e-04 -3.9637e-05 -1.8934e-05 3.1478e-03 -4.5819e-05 -2.6763e-05 -8.6117e-04 -4.5334e-05 -1.7274e-05 3.1882e-03 -4.1440e-05 -2.3805e-05 -8.5070e-04 -5.8867e-05 -1.5111e-05 3.1297e-03 -1.3156e-05 2.8236e-05 -8.6854e-04 -4.7132e-05 3.1708e-05 
0.0000e+00 0.0000e+00 0.0000e+00 0.0000e+00 0.0000e+00 0.0000e+00 0.0000e+00 0.0000e+00 0.0000e+00 0.0000e+00 0.0000e+00 0.0000e+00 0.0000e+00 0.0000e+00 0.0000e+00 0.0000e+00 0.0000e+00 0.0000e+00 0.0000e+00 0.0000e+00 0.0000e+00 0.0000e+00 0.0000e+00 0.0000e+00 0.0000e+00 0.0000e+00 0.0000e+00 0.0000e+00 0.0000e+00 0.0000e+00 
0.0000e+00 0.0000e+00 0.0000e+00 0.0000e+00 0.0000e+00 0.0000e+00 0.0000e+00 0.0000e+00 0.0000e+00 0.0000e+00 0.0000e+00 0.0000e+00 0.0000e+00 0.0000e+00 0.0000e+00 0.0000e+00 0.0000e+00 0.0000e+00 0.0000e+00 0.0000e+00 0.0000e+00 0.0000e+00 0.0000e+00 0.0000e+00 0.0000e+00 0.0000e+00 0.0000e+00 0.0000e+00 0.0000e+00 0.0000e+00 
3.5348e-03 1.1336e-07 2.4427e-05 -7.9591e-04 5.1917e-05 1.5530e-05 3.5007e-03 5.3593e-05 1.8121e-05 -8.2968e-04 3.4678e-05 2.9249e-06 3.5439e-03 3.0496e-05 -9.2464e-06 -9.5691e-04 1.4181e-05 -5.2450e-05 3.6022e-03 1.5980e-05 -6.6139e-06 -9.3390e-04 7.4360e-05 2.4852e-05 3.5453e-03 3.4907e-05 -2.9455e-05 -8.3947e-04 2.7794e-05 7.9269e-06 
5.2648e-03 9.0869e-06 1.0394e-04 9.4564e-04 -9.9598e-06 8.6636e-05 5.2285e-03 -2.6491e-05 3.9812e-05 8.6829e-04 -1.9269e-05 6.0566e-06 5.2347e-03 -1.8742e-05 -2.3283e-05 6.5182e-04 -5.8628e-06 -1.8115e-04 5.3031e-03 -1.0711e-05 -5.9010e-05 6.7765e-04 -6.0426e-05 5.2178e-05 5.2337e-03 -1.0376e-04 -4.9490e-05 8.6136e-04 -6.0278e-05 4.7530e-05 
6.2714e-03 5.5179e-05 1.6418e-04 1.8861e-03 4.6815e-05 1.4153e-04 6.2089e-03 3.6441e-05 7.8442e-05 1.9220e-03 5.3156e-05 9.5294e-06 6.2471e-03 6.6872e-05 -4.8593e-05 1.6910e-03 5.1364e-05 -3.2964e-04 6.2945e-03 1.1271e-05 -1.2213e-04 1.5828e-03 -2.0763e-05 1.0974e-04 6.2017e-03 1.0678e-05 -5.5834e-05 1.9741e-03 6.1052e-05 1.0408e-04 
6.6824e-03 -7.7169e-05 1.3574e-04 2.4655e-03 -5.1949e-05 1.0046e-04 6.6966e-03 -4.1913e-05 3.1449e-05 2.4825e-03 7.4252e-06 2.0587e-05 6.7124e-03 -2.1632e-05 -5.4808e-05 2.4476e-03 -4.8839e-06 -8.5992e-05 6.7175e-03 -6.6108e-05 -1.4395e-04 2.2278e-03 -3.2471e-04 -6.7028e-05 6.7048e-03 4.3121e-05 3.4387e-05 2.2078e-03 2.2694e-04 4.1734e-05 
6.6078e-03 5.2646e-05 8.4765e-05 2.5432e-03 1.7348e-05 9.9523e-05 6.6339e-03 1.3268e-05 7.0401e-05 2.5688e-03 3.5467e-05 4.0054e-05 6.6507e-03 4.4285e-05 -2.1156e-06 2.5277e-03 6.5770e-05 -1.5734e-04 6.6892e-03 5.4175e-05 -1.6571e-04 2.0744e-03 4.4173e-05 -6.1444e-05 6.6333e-03 1.8795e-05 -5.8195e-06 1.9794e-03 1.7353e-05 7.1914e-05 
6.1453e-03 -4.8959e-05 1.3053e-04 2.0440e-03 -6.5921e-05 1.0753e-04 6.1640e-03 -4.2542e-05 1.7371e-05 2.1439e-03 -7.7806e-05 -3.1267e-06 6.2087e-03 -4.1617e-05 -8.5406e-05 2.1219e-03 -2.0267e-05 -9.6892e-05 6.1883e-03 1.8230e-05 -1.0112e-04 1.8351e-03 2.7563e-04 -7.8590e-05 6.1684e-03 -6.5380e-05 -1.6270e-06 1.8575e-03 -3.0068e-04 4.9235e-05 
5.1023e-03 -1.1467e-05 1.0125e-04 1.0746e-03 1.9118e-05 3.9432e-05 5.1100e-03 4.2984e-05 1.9230e-05 1.0960e-03 2.6979e-05 -4.1417e-05 5.1382e-03 2.6698e-05 -9.2581e-05 1.1246e-03 3.7641e-05 -6.7874e-05 5.1544e-03 6.2892e-05 -5.0690e-05 1.0791e-03 5.3963e-05 -2.1817e-05 5.0856e-03 5.3312e-05 -9.1330e-06 1.0793e-03 1.7413e-05 7.2135e-05 
3.3280e-03 -5.1770e-05 3.1082e-05 -6.2799e-04 -2.7036e-05 9.8678e-06 3.3520e-03 -4.0809e-05 7.3071e-08 -6.1135e-04 -6.1465e-05 -1.9889e-06 3.3747e-03 -8.7067e-06 -3.9569e-05 -6.0210e-04 -4.7344e-05 -1.9658e-05 3.3580e-03 -2.8329e-05 -8.8842e-06 -6.1609e-04 -5.7956e-05 -4.9187e-05 3.3532e-03 -2.8217e-05 -2.7953e-06 -6.4317e-04 -4.1077e-05 3.5232e-05 
0.0000e+00 0.0000e+00 0.0000e+00 0.0000e+00 0.0000e+00 0.0000e+00 0.0000e+00 0.0000e+00 0.0000e+00 0.0000e+00 0.0000e+00 0.0000e+00 0.0000e+00 0.0000e+00 0.0000e+00 0.0000e+00 0.0000e+00 0.0000e+00 0.0000e+00 0.0000e+00 0.0000e+00 0.0000e+00 0.0000e+00 0.0000e+00 0.0000e+00 0.0000e+00 0.0000e+00 0.0000e+00 0.0000e+00 0.0000e+00 
0.0000e+00 0.0000e+00 0.0000e+00 0.0000e+00 0.0000e+00 0.0000e+00 0.0000e+00 0.0000e+00 0.0000e+00 0.0000e+00 0.0000e+00 0.0000e+00 0.0000e+00 0.0000e+00 0.0000e+00 0.0000e+00 0.0000e+00 0.0000e+00 0.0000e+00 0.0000e+00 0.0000e+00 0.0000e+00 0.0000e+00 0.0000e+00 0.0000e+00 0.0000e+00 0.0000e+00 0.0000e+00 0.0000e+00 0.0000e+00 
3.5397e-03 4.7538e-05 4.4374e-05 -7.0050e-04 6.6114e-05 5.8128e-06 3.5388e-03 7.1109e-05 8.3293e-06 -7.5473e-04 3.3420e-05 1.5320e-05 3.5717e-03 2.4638e-05 -9.0431e-07 -1.0358e-03 -1.1772e-04 -5.5702e-06 3.7124e-03 2.2434e-05 -1.3877e-05 -1.0184e-03 1.7711e-04 -2.2261e-05 3.5754e-03 -4.6055e-05 -4.4244e-05 -7.1718e-04 4.6581e-05 2.2748e-06 
5.3103e-03 1.5831e-05 5.4553e-05 1.0899e-03 4.9401e-05 6.9701e-05 5.3158e-03 1.7078e-05 1.5353e-05 1.0741e-03 -1.7892e-05 6.5606e-06 5.3812e-03 -5.5030e-05 2.7937e-05 4.6368e-04 -2.0534e-04 -3.8698e-05 5.4059e-03 -4.7011e-05 -4.1331e-05 4.0706e-04 8.4446e-05 -4.6917e-05 5.3547e-03 -6.9599e-05 -6.1113e-05 1.0383e-03 -3.0711e-05 5.5842e-06 
6.3500e-03 6.2330e-05 3.2851e-05 2.1268e-03 5.6858e-05 1.3899e-04 6.4209e-03 4.3050e-05 8.2843e-05 2.2308e-03 8.1978e-05 3.5631e-05 6.4988e-03 2.8039e-05 -3.1853e-05 1.6327e-03 1.6790e-04 -3.6584e-05 6.4813e-03 -2.8165e-05 -7.7125e-05 1.5143e-03 -1.3763e-04 -9.2520e-05 6.3604e-03 5.7208e-05 -5.2791e-06 2.0775e-03 2.2214e-05 -3.7291e-05 
6.7956e-03 -4.7679e-05 8.4428e-05 2.5328e-03 -7.8818e-05 3.5663e-04 6.8759e-03 -4.5572e-05 9.2436e-05 2.8602e-03 -1.6736e-05 2.6077e-05 6.9697e-03 1.6404e-05 -3.3364e-05 2.5863e-03 1.8003e-04 -7.7466e-05 6.9871e-03 -7.0375e-05 -9.4605e-05 2.5180e-03 -2.3866e-04 -4.8535e-05 6.8014e-03 2.6513e-06 -5.3248e-05 2.4406e-03 5.1245e-06 -2.5214e-04 
6.7124e-03 2.3413e-05 6.8785e-05 2.8632e-03 1.5591e-05 9.6362e-05 6.7810e-03 1.3126e-05 9.1999e-05 2.9544e-03 9.9047e-06 -2.2828e-05 6.8987e-03 2.0256e-05 -1.6604e-05 2.8170e-03 5.4455e-05 -1.2507e-04 6.9623e-03 8.0434e-05 -5.4041e-05 2.4957e-03 3.5508e-05 2.2262e-04 6.7792e-03 4.6079e-05 -8.6267e-05 2.4726e-03 5.2858e-05 -1.6484e-04 
6.3013e-03 -3.9064e-05 4.8833e-05 2.3004e-03 -7.8013e-05 1.0444e-04 6.3308e-03 -8.7778e-05 6.1427e-05 2.3995e-03 -9.6075e-05 -1.2147e-05 6.3993e-03 -7.1499e-05 -3.6818e-05 2.3114e-03 1.3009e-05 -1.0708e-04 6.4121e-03 5.5141e-05 -6.1357e-05 2.1637e-03 1.4961e-05 -5.1251e-05 6.3273e-03 -2.2375e-05 1.2366e-05 2.2021e-03 -5.5667e-05 7.4170e-05 
5.1473e-03 -7.9493e-06 1.9184e-04 1.0546e-03 9.3102e-06 2.3594e-04 5.2824e-03 2.4942e-05 -2.4640e-05 1.2109e-03 -6.2914e-06 -4.0831e-05 5.1169e-03 3.5105e-05 -1.4246e-04 1.1775e-03 4.0668e-05 -3.5998e-05 5.1167e-03 9.4329e-05 1.0453e-04 1.0924e-03 8.2419e-05 -9.2670e-07 5.1275e-03 3.4385e-05 -1.0929e-04 9.8653e-04 1.5544e-05 -1.6467e-04 
3.3702e-03 -3.5325e-05 -4.2689e-05 -6.2419e-04 -6.2162e-05 4.9395e-05 3.3539e-03 -3.5740e-05 6.4291e-05 -5.9528e-04 -5.6411e-05 -2.6280e-05 3.4158e-03 -1.7682e-05 -3.1719e-05 -5.9447e-04 -2.7916e-05 -2.6198e-05 3.4150e-03 -3.3427e-05 1.6170e-05 -6.2953e-04 -4.3912e-05 3.3499e-05 3.4366e-03 -1.6699e-05 3.4600e-06 -6.3440e-04 -3.3600e-05 -1.5009e-05 
0.0000e+00 0.0000e+00 0.0000e+00 0.0000e+00 0.0000e+00 0.0000e+00 0.0000e+00 0.0000e+00 0.0000e+00 0.0000e+00 0.0000e+00 0.0000e+00 0.0000e+00 0.0000e+00 0.0000e+00 0.0000e+00 0.0000e+00 0.0000e+00 0.0000e+00 0.0000e+00 0.0000e+00 0.0000e+00 0.0000e+00 0.0000e+00 0.0000e+00 0.0000e+00 0.0000e+00 0.0000e+00 0.0000e+00 0.0000e+00 
0.0000e+00 0.0000e+00 0.0000e+00 0.0000e+00 0.0000e+00 0.0000e+00 0.0000e+00 0.0000e+00 0.0000e+00 0.0000e+00 0.0000e+00 0.0000e+00 0.0000e+00 0.0000e+00 0.0000e+00 0.0000e+00 0.0000e+00 0.0000e+00 0.0000e+00 0.0000e+00 0.0000e+00 0.0000e+00 0.0000e+00 0.0000e+00 0.0000e+00 0.0000e+00 0.0000e+00 0.0000e+00 0.0000e+00 0.0000e+00 
3.4343e-03 9.8948e-05 3.3115e-06 -7.3464e-04 1.0678e-04 -2.1171e-06 3.4366e-03 2.1930e-05 -5.3905e-07 -7.4991e-04 2.6418e-05 6.0527e-06 3.4730e-03 7.9770e-05 1.1074e-05 -8.2661e-04 3.0596e-05 8.1868e-06 3.5654e-03 5.4788e-06 5.4753e-06 -8.6201e-04 2.4124e-05 -5.3566e-05 3.4740e-03 -1.0964e-04 -1.0238e-05 -6.6843e-04 6.8770e-05 -5.7036e-06 
5.0854e-03 -2.4691e-06 3.0576e-06 9.4785e-04 1.2149e-04 4.0969e-07 5.1207e-03 6.1143e-05 2.0562e-06 1.0761e-03 -3.1468e-05 1.1976e-05 5.2183e-03 -6.2383e-05 1.5094e-05 7.7865e-04 -2.7578e-05 1.0709e-04 5.3312e-03 -7.4854e-05 1.1697e-05 7.1589e-04 -1.3566e-04 -1.0323e-04 5.1649e-03 -5.6000e-05 -1.2924e-05 9.3351e-04 -5.1299e-05 -7.8862e-06 
5.9315e-03 1.3896e-05 9.9930e-06 1.7589e-03 3.1910e-04 8.8438e-06 6.1726e-03 1.2503e-04 6.8311e-06 2.1651e-03 1.0944e-04 4.1463e-06 6.2838e-03 3.3721e-05 9.1118e-06 1.8987e-03 -2.5756e-05 2.2659e-04 6.3100e-03 -7.0209e-05 7.6646e-06 1.8249e-03 -1.7910e-05 -2.3288e-04 6.0705e-03 4.5121e-05 -1.2731e-05 1.4053e-03 -2.3095e-04 4.4715e-06 
6.4389e-03 -7.9784e-06 1.8747e-05 2.0776e-03 -8.2149e-05 1.7995e-05 6.5678e-03 -4.3387e-05 1.2998e-05 2.7549e-03 -5.6404e-05 -7.6105e-07 6.7643e-03 2.3385e-05 -3.5227e-06 2.7018e-03 -9.2221e-05 -1.0692e-05 6.7910e-03 -3.6376e-05 -1.2270e-05 2.5314e-03 -3.7076e-06 -2.5775e-05 6.4580e-03 -6.2561e-05 -8.9341e-06 1.9334e-03 9.9858e-05 1.1344e-05 
6.2147e-03 -1.2012e-05 2.4149e-05 2.4247e-03 -2.6863e-04 2.4878e-05 6.2782e-03 -2.9112e-05 1.7346e-05 2.7895e-03 -1.5851e-05 2.6901e-06 6.7264e-03 1.1111e-06 -1.3937e-05 2.7087e-03 3.1071e-05 -2.0862e-05 6.7885e-03 1.1037e-04 -2.8854e-05 2.2300e-03 8.5693e-05 -2.7250e-05 6.4791e-03 1.2899e-04 -5.3145e-06 2.2792e-03 3.6406e-04 1.0239e-05 
5.9061e-03 1.1929e-04 2.6407e-05 2.0178e-03 9.5201e-05 2.9251e-05 6.0726e-03 -1.6638e-04 1.9127e-05 2.2348e-03 -1.0053e-04 2.9142e-06 6.0206e-03 -1.9575e-04 -1.3533e-05 2.0662e-03 5.3349e-05 -2.7018e-05 6.1059e-03 1.7929e-04 -3.0360e-05 1.8712e-03 3.4843e-05 -2.3491e-05 5.9844e-03 -9.4975e-05 -7.0071e-06 1.6371e-03 -2.4330e-04 5.9554e-06 
4.8491e-03 -1.7663e-05 2.4714e-05 7.2813e-04 3.9413e-07 2.5778e-05 5.0336e-03 1.4546e-05 1.6897e-05 1.1273e-03 -5.2463e-05 3.6359e-06 4.8049e-03 -2.8540e-05 -9.1528e-06 8.1822e-04 2.9238e-05 -2.8065e-05 4.8462e-03 1.3643e-04 -2.6748e-05 8.9119e-04 1.3874e-04 -2.0047e-05 4.8449e-03 4.7525e-05 -5.0216e-06 5.9045e-04 -4.3038e-05 1.1084e-05 
3.2049e-03 -1.6940e-04 1.1256e-05 -7.2684e-04 -2.2502e-04 1.2554e-05 3.2266e-03 3.0181e-05 9.2464e-06 -6.7898e-04 1.0691e-05 1.8256e-06 3.2255e-03 -3.0766e-05 -4.7069e-06 -7.0529e-04 -2.9194e-05 -1.0581e-05 3.2737e-03 -1.3349e-04 -1.5145e-05 -7.7984e-04 1.0976e-06 -1.0875e-05 3.2590e-03 1.4691e-04 -2.8572e-06 -8.8964e-04 1.8174e-04 4.4716e-06 
0.0000e+00 0.0000e+00 0.0000e+00 0.0000e+00 0.0000e+00 0.0000e+00 0.0000e+00 0.0000e+00 0.0000e+00 0.0000e+00 0.0000e+00 0.0000e+00 0.0000e+00 0.0000e+00 0.0000e+00 0.0000e+00 0.0000e+00 0.0000e+00 0.0000e+00 0.0000e+00 0.0000e+00 0.0000e+00 0.0000e+00 0.0000e+00 0.0000e+00 0.0000e+00 0.0000e+00 0.0000e+00 0.0000e+00 0.0000e+00 
0.0000e+00 0.0000e+00 0.0000e+00 0.0000e+00 0.0000e+00 0.0000e+00 0.0000e+00 0.0000e+00 0.0000e+00 0.0000e+00 0.0000e+00 0.0000e+00 0.0000e+00 0.0000e+00 0.0000e+00 0.0000e+00 0.0000e+00 0.0000e+00 0.0000e+00 0.0000e+00 0.0000e+00 0.0000e+00 0.0000e+00 0.0000e+00 0.0000e+00 0.0000e+00 0.0000e+00 0.0000e+00 0.0000e+00 0.0000e+00 
3.3092e-03 5.7208e-05 -2.7625e-05 -7.3942e-04 6.9103e-05 2.9334e-06 3.3131e-03 6.9455e-05 -3.3061e-06 -7.7588e-04 3.5490e-05 -6.3193e-06 3.3400e-03 2.2078e-05 3.4171e-06 -8.3373e-04 -3.1585e-05 3.0389e-05 3.3711e-03 1.8676e-05 1.1841e-05 -8.1310e-04 7.5503e-05 3.6203e-06 3.3425e-03 -4.9030e-05 5.5492e-05 -7.4191e-04 3.9774e-05 5.5933e-06 
4.8510e-03 2.2467e-05 -2.9696e-05 8.2019e-04 5.4324e-05 -5.2058e-05 4.8594e-03 1.6579e-05 -5.3419e-06 8.2834e-04 -2.8221e-05 5.8115e-06 4.9193e-03 -6.0042e-05 -2.2550e-05 7.1696e-04 -5.1920e-05 7.3154e-05 4.9628e-03 -5.7962e-05 3.2592e-05 6.6733e-04 -8.2459e-05 6.5706e-06 4.8895e-03 -6.6565e-05 7.0021e-05 7.8862e-04 -2.4430e-05 1.7589e-06 
5.7414e-03 7.3707e-05 1.4418e-06 1.6882e-03 6.8603e-05 -1.0828e-04 5.8027e-03 4.9361e-05 -6.7532e-05 1.8099e-03 7.0441e-05 -3.7426e-05 5.8887e-03 8.8658e-06 2.4341e-05 1.7645e-03 5.8177e-05 3.0362e-05 5.8883e-03 -3.4871e-05 6.7277e-05 1.6559e-03 -5.0436e-05 7.4890e-05 5.7514e-03 6.4629e-05 1.6933e-05 1.6603e-03 3.9890e-05 6.2839e-05 
6.1178e-03 -3.3548e-05 -3.0041e-05 1.9867e-03 -6.9385e-05 -3.1963e-04 6.1902e-03 -3.8888e-05 -7.4369e-05 2.3069e-03 -2.5098e-05 -4.1703e-05 6.2940e-03 -1.0892e-05 -1.5080e-06 2.2734e-03 -5.5872e-05 4.5542e-05 6.3049e-03 -8.0049e-05 7.9105e-05 2.2083e-03 -1.4104e-05 4.8469e-05 6.1461e-03 1.4129e-05 6.6657e-05 1.9050e-03 1.8530e-05 2.9012e-04 
6.0640e-03 3.6151e-05 -1.2751e-05 2.2843e-03 2.6631e-05 -5.1689e-05 6.1056e-03 1.6929e-05 -8.0424e-05 2.3512e-03 1.3005e-05 -4.6619e-06 6.2387e-03 1.0475e-05 -2.4404e-05 2.2480e-03 3.6843e-05 7.8398e-05 6.3031e-03 7.1592e-05 2.6664e-05 2.1793e-03 4.0960e-05 3.2414e-05 6.1271e-03 5.3624e-05 1.1159e-04 2.1617e-03 5.7916e-05 -5.1134e-05 
5.7454e-03 -2.9901e-05 1.7611e-05 1.7785e-03 -7.0528e-05 -5.1753e-05 5.7549e-03 -8.7611e-05 -3.2882e-05 1.8604e-03 -9.0368e-05 -5.8538e-06 5.8155e-03 -6.5338e-05 -1.2763e-05 1.7927e-03 5.2629e-06 5.2548e-05 5.8537e-03 4.6879e-05 2.3713e-05 1.6629e-03 7.4046e-06 4.6547e-05 5.7806e-03 -1.9207e-05 1.3993e-05 1.6942e-03 -4.8000e-05 -1.8378e-05 
4.7700e-03 -1.3609e-06 -1.3592e-04 6.8350e-04 1.0535e-05 -1.8538e-04 4.8820e-03 2.5283e-05 5.3331e-05 8.3080e-04 -5.0888e-06 3.8345e-05 4.7116e-03 3.9010e-05 1.1199e-04 8.0226e-04 4.0409e-05 -7.6862e-06 4.7319e-03 8.8255e-05 -1.3658e-04 7.4024e-04 8.3523e-05 -1.4173e-05 4.7567e-03 3.4387e-05 1.3201e-04 6.3548e-04 2.0457e-05 2.1244e-04 
3.2336e-03 -3.4945e-05 7.2883e-05 -7.6010e-04 -5.6792e-05 -2.4055e-05 3.2050e-03 -3.0049e-05 -5.0039e-05 -7.3791e-04 -5.5980e-05 2.8916e-05 3.2638e-03 -2.4075e-05 2.0835e-05 -7.3239e-04 -2.8970e-05 9.2091e-06 3.2733e-03 -3.4427e-05 -2.9566e-05 -7.5620e-04 -4.4403e-05 -3.5666e-05 3.3019e-03 -1.7561e-05 7.9693e-06 -7.5895e-04 -3.0775e-05 3.5325e-05 
0.0000e+00 0.0000e+00 0.0000e+00 0.0000e+00 0.0000e+00 0.0000e+00 0.0000e+00 0.0000e+00 0.0000e+00 0.0000e+00 0.0000e+00 0.0000e+00 0.0000e+00 0.0000e+00 0.0000e+00 0.0000e+00 0.0000e+00 0.0000e+00 0.0000e+00 0.0000e+00 0.0000e+00 0.0000e+00 0.0000e+00 0.0000e+00 0.0000e+00 0.0000e+00 0.0000e+00 0.0000e+00 0.0000e+00 0.0000e+00 
0.0000e+00 0.0000e+00 0.0000e+00 0.0000e+00 0.0000e+00 0.0000e+00 0.0000e+00 0.0000e+00 0.0000e+00 0.0000e+00 0.0000e+00 0.0000e+00 0.0000e+00 0.0000e+00 0.0000e+00 0.0000e+00 0.0000e+00 0.0000e+00 0.0000e+00 0.0000e+00 0.0000e+00 0.0000e+00 0.0000e+00 0.0000e+00 0.0000e+00 0.0000e+00 0.0000e+00 0.0000e+00 0.0000e+00 0.0000e+00 
3.0520e-03 3.2969e-05 -2.6732e-06 -9.2628e-04 5.8568e-05 -2.2574e-05 3.0375e-03 4.8654e-05 -2.9512e-05 -9.2174e-04 4.5190e-05 3.0005e-06 3.0422e-03 -1.0753e-05 8.9770e-06 -9.1418e-04 6.2112e-05 1.0693e-05 3.0417e-03 1.5612e-05 1.1470e-05 -8.8255e-04 4.8947e-06 2.7466e-06 3.0355e-03 4.8333e-05 2.8943e-06 -9.2699e-04 3.1533e-05 8.8904e-07 
4.2716e-03 1.7275e-05 -3.2133e-05 2.9658e-04 4.8627e-06 -5.7155e-05 4.2709e-03 -2.1674e-05 -4.1530e-05 2.8586e-04 -3.2203e-05 -3.3293e-06 4.2789e-03 -4.3872e-05 1.2959e-05 2.6957e-04 -5.6896e-05 9.2800e-05 4.2657e-03 -5.0300e-05 2.8230e-05 2.7907e-04 -4.4775e-05 -3.8411e-05 4.2768e-03 -6.4858e-05 4.3224e-05 2.8966e-04 -2.4522e-05 7.8663e-06 
4.9606e-03 6.3739e-05 -8.7372e-05 9.2883e-04 6.3239e-05 -1.2997e-04 4.9303e-03 4.4410e-05 -7.2778e-05 9.7646e-04 3.4139e-05 -1.1889e-05 4.9709e-03 3.4121e-05 2.6280e-05 9.8883e-04 2.2395e-06 5.6444e-05 4.9783e-03 1.1618e-05 5.1117e-05 9.4667e-04 2.5881e-05 7.1777e-05 4.9326e-03 3.0602e-05 9.6421e-05 9.9859e-04 6.6930e-05 1.2587e-05 
5.2737e-03 -4.6609e-05 -8.4993e-05 1.2883e-03 -3.9326e-05 -7.7253e-05 5.2770e-03 -3.9374e-05 -2.9417e-05 1.3124e-03 -1.4329e-05 -3.2472e-05 5.2869e-03 -4.0576e-05 3.0020e-05 1.3123e-03 -4.0780e-05 5.0730e-05 5.3024e-03 -7.0556e-05 8.8839e-05 1.3309e-03 -3.8141e-05 3.9405e-05 5.2860e-03 3.1549e-05 -2.7032e-06 1.3144e-03 -2.2688e-05 2.4523e-06 
5.2432e-03 6.5412e-05 -2.8598e-05 1.3010e-03 3.0402e-05 -5.1370e-05 5.2345e-03 2.3917e-05 -7.0024e-05 1.3382e-03 2.5611e-05 -4.5393e-05 5.2441e-03 2.8575e-05 -2.3581e-05 1.2868e-03 4.4492e-05 8.8820e-05 5.2955e-03 3.4603e-05 1.0877e-04 1.3693e-03 4.0027e-05 1.9952e-05 5.2372e-03 2.5192e-05 3.5023e-06 1.2767e-03 3.4268e-05 -3.2185e-05 
4.9614e-03 -4.4412e-05 -7.3125e-05 9.3906e-04 -5.2707e-05 -6.8501e-05 4.9568e-03 -3.1668e-05 -1.9184e-06 1.0159e-03 -7.1138e-05 -1.2119e-05 4.9838e-03 -5.5632e-05 4.5976e-05 1.0171e-03 -2.6822e-05 3.9656e-05 4.9790e-03 2.1491e-05 4.0079e-05 9.9045e-04 -1.7916e-05 3.0146e-05 4.9771e-03 -6.6995e-05 -1.3547e-05 1.0159e-03 -1.8059e-05 -7.6298e-06 
4.2536e-03 5.2150e-06 -2.7992e-05 2.8520e-04 3.0482e-05 -6.6511e-07 4.2580e-03 4.4698e-05 8.1692e-06 2.7418e-04 3.8165e-05 3.3983e-05 4.2683e-03 3.3868e-05 5.1892e-05 3.3477e-04 3.2914e-05 1.8981e-05 4.2786e-03 4.7902e-05 -2.5248e-05 2.9152e-04 3.9319e-05 -4.3585e-05 4.2726e-03 5.0848e-05 -8.3637e-06 3.0722e-04 2.1810e-05 -2.4067e-05 
3.0205e-03 -4.5908e-05 -5.0633e-06 -9.3174e-04 -2.1034e-05 1.9648e-05 3.0229e-03 -3.6536e-05 1.4732e-05 -9.2080e-04 -5.8130e-05 3.0686e-06 3.0343e-03 -4.4954e-06 2.0877e-05 -8.9895e-04 -4.5357e-05 -5.5593e-06 3.0344e-03 -4.1064e-05 -1.6282e-05 -9.0834e-04 -3.4754e-05 -1.5078e-06 3.0427e-03 -2.5243e-05 -1.7061e-05 -9.1965e-04 -5.8129e-05 -1.5938e-05 
0.0000e+00 0.0000e+00 0.0000e+00 0.0000e+00 0.0000e+00 0.0000e+00 0.0000e+00 0.0000e+00 0.0000e+00 0.0000e+00 0.0000e+00 0.0000e+00 0.0000e+00 0.0000e+00 0.0000e+00 0.0000e+00 0.0000e+00 0.0000e+00 0.0000e+00 0.0000e+00 0.0000e+00 0.0000e+00 0.0000e+00 0.0000e+00 0.0000e+00 0.0000e+00 0.0000e+00 0.0000e+00 0.0000e+00 0.0000e+00 
0.0000e+00 0.0000e+00 0.0000e+00 0.0000e+00 0.0000e+00 0.0000e+00 0.0000e+00 0.0000e+00 0.0000e+00 0.0000e+00 0.0000e+00 0.0000e+00 0.0000e+00 0.0000e+00 0.0000e+00 0.0000e+00 0.0000e+00 0.0000e+00 0.0000e+00 0.0000e+00 0.0000e+00 0.0000e+00 0.0000e+00 0.0000e+00 0.0000e+00 0.0000e+00 0.0000e+00 0.0000e+00 0.0000e+00 0.0000e+00 
2.5065e-03 4.4174e-05 -9.6124e-07 -1.4085e-03 4.5002e-05 2.9184e-07 2.5105e-03 2.6812e-05 1.6639e-05 -1.3822e-03 4.6308e-05 -5.2141e-06 2.4890e-03 2.2892e-05 4.5097e-06 -1.3664e-03 4.8505e-05 6.7118e-06 2.4767e-03 3.1185e-05 6.9578e-06 -1.3502e-03 1.0980e-05 5.0788e-06 2.4909e-03 4.8155e-05 -7.0546e-06 -1.3881e-03 3.1011e-05 4.3348e-06 
3.0299e-03 -2.2094e-05 1.2108e-06 -8.9887e-04 -2.1589e-05 -8.9881e-06 3.0334e-03 -2.3564e-05 1.1845e-05 -8.7399e-04 -3.9079e-05 -9.6767e-06 3.0250e-03 -3.9333e-05 2.7503e-05 -8.5222e-04 -4.6389e-05 -1.2419e-05 3.0077e-03 -4.3342e-05 5.8726e-06 -8.3188e-04 -3.1939e-05 1.7099e-05 3.0238e-03 -3.5727e-05 -1.0405e-05 -8.8267e-04 -2.5703e-05 -1.8206e-07 
3.3116e-03 4.6423e-05 -3.7063e-06 -6.3950e-04 4.8592e-05 -2.2767e-05 3.2990e-03 4.3170e-05 -9.5467e-06 -6.3148e-04 3.3968e-05 -2.3205e-05 3.3046e-03 3.7463e-05 1.1868e-05 -6.1442e-04 2.6570e-05 1.0443e-05 3.3057e-03 2.6030e-05 3.0701e-05 -5.9971e-04 3.3234e-05 7.9449e-06 3.3058e-03 3.2787e-05 1.8230e-05 -6.1914e-04 4.6404e-05 4.2878e-06 
3.4279e-03 -2.8470e-05 4.0226e-06 -5.3489e-04 -3.6265e-05 -3.4062e-05 3.4186e-03 -3.8044e-05 -1.5572e-05 -5.1354e-04 -3.5733e-05 -1.5969e-05 3.4268e-03 -3.7995e-05 1.9619e-05 -5.1258e-04 -4.0858e-05 2.6949e-05 3.4398e-03 -3.7783e-05 2.9914e-05 -4.8874e-04 -3.6713e-05 -9.9243e-06 3.4377e-03 -3.0295e-05 1.0799e-05 -5.0921e-04 -2.1910e-05 2.6805e-06 
3.4230e-03 3.7139e-05 -4.2569e-06 -5.3813e-04 3.3250e-05 -3.1569e-05 3.4246e-03 3.4484e-05 -3.0966e-06 -5.1253e-04 3.1595e-05 -1.2700e-05 3.4295e-03 3.5376e-05 2.2410e-05 -5.1032e-04 3.7416e-05 1.6391e-05 3.4458e-03 3.5235e-05 2.2927e-05 -4.9263e-04 3.1947e-05 -1.1027e-06 3.4497e-03 3.3624e-05 1.1810e-05 -5.0846e-04 4.1594e-05 6.7171e-07 
3.3058e-03 -4.1137e-05 -1.2163e-05 -6.5079e-04 -3.6005e-05 -2.9534e-05 3.3064e-03 -3.7066e-05 1.0723e-05 -6.2568e-04 -4.2989e-05 4.6736e-06 3.3213e-03 -3.8308e-05 1.2685e-05 -6.2270e-04 -2.9977e-05 -1.1339e-06 3.3229e-03 -2.8400e-05 1.9994e-05 -6.0651e-04 -3.2888e-05 2.2978e-06 3.3330e-03 -3.7340e-05 1.6896e-05 -6.2380e-04 -4.3405e-05 9.5351e-07 