<?xml version="1.0"?>
<!-- openLBMflow v1.0.1, www.lbmflow.com -->
<VTKFile type="ImageData" version="0.1" byte_order="LittleEndian">
  <ImageData WholeExtent="0 9 0 9 0 9" Origin="0 0 0" Spacing="1 1 1">
  <Piece Extent="0 9 0 9 0 9">
    <PointData Scalars="scalars">
      <DataArray type="Float32" Name="Velocity" NumberOfComponents="3" format="ascii">
0.0000e+00 0.0000e+00 0.0000e+00 0.0000e+00 0.0000e+00 0.0000e+00 0.0000e+00 0.0000e+00 0.0000e+00 0.0000e+00 0.0000e+00 0.0000e+00 0.0000e+00 0.0000e+00 0.0000e+00 0.0000e+00 0.0000e+00 0.0000e+00 0.0000e+00 0.0000e+00 0.0000e+00 0.0000e+00 0.0000e+00 0.0000e+00 0.0000e+00 0.0000e+00 0.0000e+00 0.0000e+00 0.0000e+00 0.0000e+00 
0.0000e+00 0.0000e+00 0.0000e+00 0.0000e+00 0.0000e+00 0.0000e+00 0.0000e+00 0.0000e+00 0.0000e+00 0.0000e+00 0.0000e+00 0.0000e+00 0.0000e+00 0.0000e+00 0.0000e+00 0.0000e+00 0.0000e+00 0.0000e+00 0.0000e+00 0.0000e+00 0.0000e+00 0.0000e+00 0.0000e+00 0.0000e+00 0.0000e+00 0.0000e+00 0.0000e+00 0.0000e+00 0.0000e+00 0.0000e+00 
0.0000e+00 0.0000e+00 0.0000e+00 0.0000e+00 0.0000e+00 0.0000e+00 0.0000e+00 0.0000e+00 0.0000e+00 0.0000e+00 0.0000e+00 0.0000e+00 0.0000e+00 0.0000e+00 0.0000e+00 0.0000e+00 0.0000e+00 0.0000e+00 0.0000e+00 0.0000e+00 0.0000e+00 0.0000e+00 0.0000e+00 0.0000e+00 0.0000e+00 0.0000e+00 0.0000e+00 0.0000e+00 0.0000e+00 0.0000e+00 
0.0000e+00 0.0000e+00 0.0000e+00 0.0000e+00 0.0000e+00 0.0000e+00 0.0000e+00 0.0000e+00 0.0000e+00 0.0000e+00 0.0000e+00 0.0000e+00 0.0000e+00 0.0000e+00 0.0000e+00 0.0000e+00 0.0000e+00 0.0000e+00 0.0000e+00 0.0000e+00 0.0000e+00 0.0000e+00 0.0000e+00 0.0000e+00 0.0000e+00 0.0000e+00 0.0000e+00 0.0000e+00 0.0000e+00 0.0000e+00 
0.0000e+00 0.0000e+00 0.0000e+00 0.0000e+00 0.0000e+00 0.0000e+00 0.0000e+00 0.0000e+00 0.0000e+00 0.0000e+00 0.0000e+00 0.0000e+00 0.0000e+00 0.0000e+00 0.0000e+00 0.0000e+00 0.0000e+00 0.0000e+00 0.0000e+00 0.0000e+00 0.0000e+00 0.0000e+00 0.0000e+00 0.0000e+00 0.0000e+00 0.0000e+00 0.0000e+00 0.0000e+00 0.0000e+00 0.0000e+00 
0.0000e+00 0.0000e+00 0.0000e+00 0.0000e+00 0.0000e+00 0.0000e+00 0.0000e+00 0.0000e+00 0.0000e+00 0.0000e+00 0.0000e+00 0.0000e+00 0.0000e+00 0.0000e+00 0.0000e+00 0.0000e+00 0.0000e+00 0.0000e+00 0.0000e+00 0.0000e+00 0.0000e+00 0.0000e+00 0.0000e+00 0.0000e+00 0.0000e+00 0.0000e+00 0.0000e+00 0.0000e+00 0.0000e+00 0.0000e+00 
0.0000e+00 0.0000e+00 0.0000e+00 0.0000e+00 0.0000e+00 0.0000e+00 0.0000e+00 0.0000e+00 0.0000e+00 0.0000e+00 0.0000e+00 0.0000e+00 0.0000e+00 0.0000e+00 0.0000e+00 0.0000e+00 0.0000e+00 0.0000e+00 0.0000e+00 0.0000e+00 0.0000e+00 0.0000e+00 0.0000e+00 0.0000e+00 0.0000e+00 0.0000e+00 0.0000e+00 0.0000e+00 0.0000e+00 0.0000e+00 
0.0000e+00 0.0000e+00 0.0000e+00 0.0000e+00 0.0000e+00 0.0000e+00 0.0000e+00 0.0000e+00 0.0000e+00 0.0000e+00 0.0000e+00 0.0000e+00 0.0000e+00 0.0000e+00 0.0000e+00 0.0000e+00 0.0000e+00 0.0000e+00 0.0000e+00 0.0000e+00 0.0000e+00 0.0000e+00 0.0000e+00 0.0000e+00 0.0000e+00 0.0000e+00 0.0000e+00 0.0000e+00 0.0000e+00 0.0000e+00 
0.0000e+00 0.0000e+00 0.0000e+00 0.0000e+00 0.0000e+00 0.0000e+00 0.0000e+00 0.0000e+00 0.0000e+00 0.0000e+00 0.0000e+00 0.0000e+00 0.0000e+00 0.0000e+00 0.0000e+00 0.0000e+00 0.0000e+00 0.0000e+00 0.0000e+00 0.0000e+00 0.0000e+00 0.0000e+00 0.0000e+00 0.0000e+00 0.0000e+00 0.0000e+00 0.0000e+00 0.0000e+00 0.0000e+00 0.0000e+00 
0.0000e+00 0.0000e+00 0.0000e+00 0.0000e+00 0.0000e+00 0.0000e+00 0.0000e+00 0.0000e+00 0.0000e+00 0.0000e+00 0.0000e+00 0.0000e+00 0.0000e+00 0.0000e+00 0.0000e+00 0.0000e+00 0.0000e+00 0.0000e+00 0.0000e+00 0.0000e+00 0.0000e+00 0.0000e+00 0.0000e+00 0.0000e+00 0.0000e+00 0.0000e+00 0.0000e+00 0.0000e+00 0.0000e+00 0.0000e+00 
0.0000e+00 0.0000e+00 0.0000e+00 0.0000e+00 0.0000e+00 0.0000e+00 0.0000e+00 0.0000e+00 0.0000e+00 0.0000e+00 0.0000e+00 0.0000e+00 0.0000e+00 0.0000e+00 0.0000e+00 0.0000e+00 0.0000e+00 0.0000e+00 0.0000e+00 0.0000e+00 0.0000e+00 0.0000e+00 0.0000e+00 0.0000e+00 0.0000e+00 0.0000e+00 0.0000e+00 0.0000e+00 0.0000e+00 0.0000e+00 
2.5151e-03 6.3914e-05 -7.4749e-06 -1.4591e-03 6.0951e-05 -2.0322e-05 2.6141e-03 3.3057e-06 -9.0037e-06 -1.4080e-03 7.8733e-05 -1.1978e-05 2.4313e-03 2.8740e-05 -4.4241e-05 -1.0843e-03 3.2456e-05 -1.4533e-05 2.4600e-03 1.5066e-04 2.8744e-05 -1.1810e-03 1.7161e-04 -2.3235e-05 2.4527e-03 -6.3357e-05 2.7472e-06 -1.2009e-03 -3.7242e-05 2.8094e-05 
3.0719e-03 -7.8243e-05 4.9512e-06 -6.7528e-04 -7.0889e-05 1.2568e-05 3.1053e-03 -5.0262e-05 -1.5525e-05 -6.6144e-04 -5.2449e-05 1.1622e-05 3.0048e-03 1.2489e-05 -1.6552e-05 -6.3120e-04 -1.7786e-05 -5.8577e-06 3.1928e-03 -6.1666e-05 -2.1416e-05 -8.4091e-04 -7.2096e-05 3.3364e-06 3.0725e-03 -2.7229e-05 -7.2113e-06 -6.0748e-04 -2.3860e-05 -2.6517e-05 
3.3045e-03 1.8101e-05 -1.5438e-06 -4.3411e-04 2.3554e-05 -8.4683e-06 3.3603e-03 1.3685e-05 -2.0470e-05 -4.1231e-04 3.6407e-05 5.7666e-05 3.2632e-03 1.4382e-05 6.0055e-06 -3.4028e-04 4.0327e-05 4.6648e-06 3.3146e-03 -6.4740e-05 -6.5372e-05 -2.9570e-04 3.8204e-05 -2.2615e-05 3.3554e-03 2.2729e-04 1.9308e-05 -3.7541e-04 7.0382e-05 -1.8132e-05 
3.4565e-03 -2.4807e-05 -1.2268e-05 -3.0993e-04 1.3708e-05 1.8904e-05 3.4199e-03 -4.5837e-05 -3.6230e-05 -2.4743e-04 -6.8973e-05 4.6777e-05 3.3501e-03 -5.0163e-05 -2.2701e-05 -1.6271e-04 -5.4669e-05 -1.5091e-05 3.3040e-03 -1.5540e-05 -4.4220e-05 -1.4959e-04 -3.1419e-05 -3.7088e-05 3.3774e-03 -4.1060e-05 4.6514e-05 -3.0005e-04 -2.8703e-05 2.0309e-06 
3.6621e-03 2.6937e-04 -3.9161e-06 -2.7055e-04 1.1111e-05 3.9500e-05 3.5966e-03 -1.9655e-04 -4.0083e-05 -1.9911e-04 5.3518e-05 2.4620e-05 3.2967e-03 4.2923e-05 -4.0301e-05 -1.2698e-04 4.5272e-06 -3.7438e-05 3.3248e-03 2.8051e-05 -5.9445e-06 -1.9028e-04 3.3263e-05 -1.9492e-05 3.3717e-03 1.0808e-05 9.7046e-06 -2.5476e-04 5.8154e-05 -6.1828e-06 
3.6724e-03 -8.2084e-07 1.6708e-05 -8.2119e-04 -5.8492e-05 8.9810e-06 3.7191e-03 -2.8432e-05 -2.7005e-05 -3.2814e-04 -6.4849e-05 9.2269e-06 3.1742e-03 -2.9717e-05 -3.1584e-05 -2.9630e-04 -1.6430e-05 -1.3134e-05 3.3079e-03 2.9617e-05 -2.0218e-05 -1.3878e-04 8.8530e-05 -4.5335e-06 3.3599e-03 -1.5781e-04 -2.2242e-06 -1.5526e-04 -1.3087e-04 -4.9580e-06 
3.1030e-03 -2.0485e-04 2.6895e-05 -6.0568e-04 6.1002e-05 1.7280e-05 3.1573e-03 2.8489e-04 4.4888e-06 -6.4197e-04 7.7000e-06 -4.6535e-05 2.9813e-03 3.7918e-05 -2.6799e-05 -6.3785e-04 5.2767e-05 2.9866e-05 3.1088e-03 1.9667e-05 -5.2299e-05 -4.8761e-04 6.2577e-05 5.4437e-05 2.8495e-03 3.3293e-05 -1.6485e-05 -2.3412e-04 -1.8655e-05 -2.4521e-05 
2.4111e-03 -5.6102e-05 -7.3796e-07 -1.1811e-03 -3.5880e-05 1.3324e-05 2.3394e-03 -6.4308e-05 9.2708e-06 -1.1979e-03 5.8573e-05 -1.5519e-05 2.3879e-03 -1.6975e-05 -1.1839e-05 -1.2095e-03 -1.3213e-04 -2.6472e-05 2.4470e-03 -1.1299e-04 -3.2045e-05 -4.2968e-04 -1.9053e-04 2.3917e-05 2.3683e-03 1.5491e-04 -4.7953e-06 -9.8364e-04 1.6447e-04 -3.4348e-05 
0.0000e+00 0.0000e+00 0.0000e+00 0.0000e+00 0.0000e+00 0.0000e+00 0.0000e+00 0.0000e+00 0.0000e+00 0.0000e+00 0.0000e+00 0.0000e+00 0.0000e+00 0.0000e+00 0.0000e+00 0.0000e+00 0.0000e+00 0.0000e+00 0.0000e+00 0.0000e+00 0.0000e+00 0.0000e+00 0.0000e+00 0.0000e+00 0.0000e+00 0.0000e+00 0.0000e+00 0.0000e+00 0.0000e+00 0.0000e+00 
0.0000e+00 0.0000e+00 0.0000e+00 0.0000e+00 0.0000e+00 0.0000e+00 0.0000e+00 0.0000e+00 0.0000e+00 0.0000e+00 0.0000e+00 0.0000e+00 0.0000e+00 0.0000e+00 0.0000e+00 0.0000e+00 0.0000e+00 0.0000e+00 0.0000e+00 0.0000e+00 0.0000e+00 0.0000e+00 0.0000e+00 0.0000e+00 0.0000e+00 0.0000e+00 0.0000e+00 0.0000e+00 0.0000e+00 0.0000e+00 
3.0517e-03 1.1579e-05 -4.1766e-05 -6.9361e-04 3.3091e-05 1.5531e-06 3.0730e-03 1.3587e-05 1.0056e-05 -6.9525e-04 2.3988e-05 -6.2383e-06 2.9980e-03 1.7232e-05 8.7308e-05 -6.6826e-04 4.4068e-05 1.7350e-05 2.9350e-03 4.3318e-05 -2.5792e-05 -7.1775e-04 5.2946e-05 -1.6491e-05 2.9471e-03 4.2024e-05 7.1099e-06 -7.1413e-04 5.4764e-05 2.3202e-05 
4.3543e-03 -2.8716e-05 1.1999e-05 6.4400e-04 -4.8534e-05 -6.6959e-06 4.3118e-03 -5.4938e-05 6.7963e-06 6.0009e-04 -6.1638e-05 -5.4818e-06 4.3155e-03 -5.6749e-05 -5.7715e-06 6.3063e-04 -2.8094e-05 1.3468e-05 4.4111e-03 -1.4855e-05 -1.0494e-04 6.1037e-04 -1.5357e-05 -4.5617e-05 4.3937e-03 -2.0016e-05 1.4354e-04 6.3868e-04 -1.8926e-05 8.8851e-05 
5.1257e-03 3.3201e-05 2.4410e-05 1.3556e-03 2.0253e-05 3.7822e-05 5.0949e-03 2.8248e-06 1.9326e-05 1.3245e-03 2.3121e-05 -2.5144e-05 5.0616e-03 1.0201e-05 -7.8163e-06 1.3730e-03 2.7742e-05 -1.7256e-05 5.0362e-03 5.0600e-05 7.9896e-06 1.3554e-03 5.9222e-05 1.9978e-05 5.0405e-03 6.2888e-05 -2.4267e-06 1.3605e-03 5.2767e-05 5.3530e-05 
5.4576e-03 -1.2537e-05 4.5524e-05 1.6894e-03 -2.9055e-05 2.2758e-05 5.3992e-03 -5.2802e-05 3.3764e-05 1.6968e-03 -5.1942e-05 -1.3586e-05 5.3635e-03 -4.6616e-05 -1.2670e-05 1.7583e-03 -5.2393e-05 -3.2539e-05 5.3654e-03 -3.9747e-05 -1.2286e-05 1.7313e-03 -3.5427e-05 1.1694e-05 5.3975e-03 -2.1790e-05 -2.1293e-05 1.7024e-03 -4.1356e-06 5.3916e-05 
5.4184e-03 4.6033e-05 5.0271e-05 1.7075e-03 1.2775e-05 1.8740e-05 5.3511e-03 2.4546e-05 3.3119e-05 1.7301e-03 3.3571e-05 -1.9972e-05 5.3235e-03 2.2877e-05 -2.4497e-05 1.7797e-03 8.0544e-06 -2.1219e-05 5.3604e-03 5.4020e-06 -4.6632e-05 1.7579e-03 2.4495e-05 1.5838e-06 5.4019e-03 4.5035e-05 1.8087e-05 1.7356e-03 5.4849e-05 6.6472e-05 
5.2686e-03 -1.7504e-05 -1.9842e-04 1.4044e-03 -5.2753e-05 4.6122e-05 5.2411e-03 -2.3078e-05 2.6395e-04 1.4096e-03 -3.6361e-05 -2.7850e-05 4.9773e-03 -3.5977e-05 -3.6132e-05 1.4414e-03 -4.3922e-05 -2.6745e-05 5.0048e-03 -7.0454e-05 -2.5010e-05 1.4719e-03 -4.8815e-05 1.2485e-05 5.0248e-03 -1.7553e-05 2.1298e-05 1.4558e-03 -6.1746e-06 3.4482e-05 
4.2345e-03 3.3259e-05 -1.5929e-07 7.2995e-04 9.9891e-06 3.7693e-05 4.2625e-03 4.2323e-05 1.6295e-06 6.7272e-04 3.0255e-05 2.2401e-05 4.2426e-03 3.6901e-05 -2.0327e-05 6.8287e-04 2.5319e-05 -5.1453e-05 4.3606e-03 2.0224e-05 -1.0127e-04 9.1145e-04 3.9957e-05 -1.3174e-04 4.3720e-03 3.8749e-05 1.4917e-04 9.0560e-04 5.1706e-05 1.5879e-04 
2.8663e-03 -2.7836e-05 -2.7006e-06 -6.1961e-04 -4.3155e-05 -2.8873e-05 2.9189e-03 -4.8109e-05 -7.0958e-06 -6.3630e-04 -1.7475e-05 1.9564e-05 2.8974e-03 -1.9538e-05 -1.5845e-06 -6.4116e-04 -5.1147e-05 -9.8199e-06 2.8936e-03 -6.3041e-06 2.5652e-05 -5.6810e-04 -5.7053e-05 -2.0753e-05 2.8760e-03 -1.5211e-05 -1.0884e-05 -5.8443e-04 -2.6481e-06 5.0915e-05 
0.0000e+00 0.0000e+00 0.0000e+00 0.0000e+00 0.0000e+00 0.0000e+00 0.0000e+00 0.0000e+00 0.0000e+00 0.0000e+00 0.0000e+00 0.0000e+00 0.0000e+00 0.0000e+00 0.0000e+00 0.0000e+00 0.0000e+00 0.0000e+00 0.0000e+00 0.0000e+00 0.0000e+00 0.0000e+00 0.0000e+00 0.0000e+00 0.0000e+00 0.0000e+00 0.0000e+00 0.0000e+00 0.0000e+00 0.0000e+00 
0.0000e+00 0.0000e+00 0.0000e+00 0.0000e+00 0.0000e+00 0.0000e+00 0.0000e+00 0.0000e+00 0.0000e+00 0.0000e+00 0.0000e+00 0.0000e+00 0.0000e+00 0.0000e+00 0.0000e+00 0.0000e+00 0.0000e+00 0.0000e+00 0.0000e+00 0.0000e+00 0.0000e+00 0.0000e+00 0.0000e+00 0.0000e+00 0.0000e+00 0.0000e+00 0.0000e+00 0.0000e+00 0.0000e+00 0.0000e+00 
3.2629e-03 2.1412e-05 1.3608e-05 -4.8981e-04 8.3016e-06 -2.8018e-07 3.2198e-03 2.6445e-05 6.0639e-06 -4.9633e-04 2.9655e-05 -2.0893e-05 3.2239e-03 2.2199e-05 -1.6159e-05 -5.0199e-04 4.2496e-05 -2.5043e-05 3.2335e-03 3.8708e-05 -1.1728e-05 -5.2398e-04 3.9928e-05 3.0921e-05 3.2185e-03 6.9787e-06 -2.9388e-05 -4.9745e-04 6.7473e-05 -1.5928e-05 
4.9824e-03 1.4781e-06 5.0587e-05 1.2353e-03 -2.8567e-05 2.9315e-05 4.9257e-03 -4.6188e-05 -2.9452e-05 1.1960e-03 -6.0649e-05 -1.1941e-05 4.9211e-03 -8.2265e-05 -6.3361e-05 1.2178e-03 -6.2094e-05 -5.1512e-05 4.9062e-03 6.5423e-07 3.0561e-05 1.1419e-03 1.6380e-05 1.7828e-05 4.9152e-03 -4.5434e-05 -3.2079e-05 1.2420e-03 -1.3102e-05 -1.5586e-05 
6.0172e-03 3.2698e-05 6.5052e-05 2.2166e-03 3.6483e-05 5.7450e-05 5.9421e-03 9.2952e-06 1.4378e-05 2.1700e-03 -8.1234e-06 -6.7187e-05 5.9174e-03 1.0307e-05 -8.2634e-05 2.2292e-03 4.4939e-05 -5.7772e-05 5.9593e-03 3.3470e-05 -1.3104e-05 2.1062e-03 3.7289e-05 3.1380e-05 5.9054e-03 6.1173e-05 -3.4774e-05 2.2708e-03 4.7941e-05 -7.3962e-06 
6.4672e-03 -3.1548e-05 4.6269e-05 2.7220e-03 -5.2009e-05 2.2346e-05 6.3516e-03 -4.9542e-05 -3.2998e-05 2.6949e-03 -4.9437e-05 -4.8092e-05 6.4186e-03 -3.5625e-05 -4.1600e-05 2.7132e-03 -2.7377e-05 -1.6519e-05 6.3547e-03 -7.3471e-05 4.6262e-06 2.6850e-03 -5.2300e-05 -3.0816e-06 6.4180e-03 2.7906e-05 -2.3650e-05 2.7489e-03 1.5619e-05 1.3295e-05 
6.4396e-03 4.4282e-05 4.0789e-05 2.7337e-03 1.9988e-05 3.0517e-05 6.4055e-03 1.8358e-05 8.5266e-06 2.7011e-03 4.4687e-05 -3.4836e-05 6.3852e-03 -1.6467e-05 -6.8157e-05 2.7232e-03 -2.0383e-05 -3.1751e-05 6.3867e-03 2.6485e-05 -4.3200e-05 2.7290e-03 2.3477e-05 -2.0374e-05 6.4124e-03 6.1044e-05 2.0686e-05 2.7458e-03 6.3677e-05 2.4234e-05 
5.9561e-03 -2.4994e-05 4.9283e-05 2.2850e-03 -3.4159e-05 3.9308e-05 5.9302e-03 -4.5906e-05 9.3991e-06 2.2150e-03 -3.2699e-05 -6.3042e-05 5.9121e-03 -4.2400e-05 -8.9478e-05 2.2870e-03 -6.6285e-05 -6.9713e-05 5.9103e-03 -4.2584e-05 -1.9791e-05 2.2441e-03 -5.6391e-05 -2.5187e-06 5.9319e-03 -1.1296e-05 -1.4392e-06 2.2877e-03 6.5583e-06 6.0607e-05 
4.8814e-03 3.2903e-05 7.2832e-05 1.3152e-03 9.6491e-06 4.3815e-05 4.9189e-03 2.2777e-05 -7.3873e-06 1.2885e-03 4.2306e-05 -2.7077e-05 4.8569e-03 5.7292e-05 -7.5161e-05 1.2991e-03 1.4115e-05 -5.7866e-05 4.8811e-03 -2.6425e-06 -5.6043e-05 1.3302e-03 1.2845e-05 -7.1497e-05 4.9065e-03 4.2056e-05 9.9656e-06 1.3069e-03 5.8898e-05 6.5437e-05 
3.1265e-03 -1.1252e-05 2.3896e-05 -4.0166e-04 -4.5647e-05 3.1830e-05 3.1821e-03 -2.3197e-05 9.5625e-06 -4.0514e-04 -4.1358e-05 -9.6794e-06 3.1291e-03 -2.6200e-05 -2.4087e-05 -4.0697e-04 -2.2887e-05 -3.5611e-05 3.1352e-03 -3.8264e-05 -4.9210e-05 -3.7529e-04 -2.6299e-05 -5.4418e-05 3.1809e-03 -2.3975e-05 -1.0581e-05 -3.9257e-04 -5.1927e-05 1.9331e-05 
0.0000e+00 0.0000e+00 0.0000e+00 0.0000e+00 0.0000e+00 0.0000e+00 0.0000e+00 0.0000e+00 0.0000e+00 0.0000e+00 0.0000e+00 0.0000e+00 0.0000e+00 0.0000e+00 0.0000e+00 0.0000e+00 0.0000e+00 0.0000e+00 0.0000e+00 0.0000e+00 0.0000e+00 0.0000e+00 0.0000e+00 0.0000e+00 0.0000e+00 0.0000e+00 0.0000e+00 0.0000e+00 0.0000e+00 0.0000e+00 
0.0000e+00 0.0000e+00 0.0000e+00 0.0000e+00 0.0000e+00 0.0000e+00 0.0000e+00 0.0000e+00 0.0000e+00 0.0000e+00 0.0000e+00 0.0000e+00 0.0000e+00 0.0000e+00 0.0000e+00 0.0000e+00 0.0000e+00 0.0000e+00 0.0000e+00 0.0000e+00 0.0000e+00 0.0000e+00 0.0000e+00 0.0000e+00 0.0000e+00 0.0000e+00 0.0000e+00 0.0000e+00 0.0000e+00 0.0000e+00 
3.3045e-03 1.6695e-05 8.0869e-07 -4.2587e-04 5.1967e-05 2.1871e-05 3.2316e-03 -2.1820e-06 -9.6698e-07 -4.2780e-04 1.2569e-05 -2.1435e-05 3.2084e-03 -2.2899e-05 -2.4997e-05 -4.2891e-04 1.2354e-05 1.8375e-06 3.2264e-03 7.4118e-05 4.6297e-05 -4.9064e-04 4.9674e-05 -4.4433e-06 3.2455e-03 1.7716e-05 -2.4363e-05 -4.4525e-04 6.2495e-05 3.0430e-05 
4.9622e-03 1.0641e-05 1.7339e-04 1.2309e-03 -4.8912e-06 2.1127e-04 5.0236e-03 -4.3369e-05 -2.4952e-05 1.3835e-03 -9.5681e-05 -4.8218e-05 4.9208e-03 -1.0316e-04 -6.4170e-05 1.3884e-03 -4.5217e-05 1.3071e-05 4.9036e-03 -2.5421e-05 4.8803e-05 1.2495e-03 2.8318e-06 -4.1256e-05 4.8323e-03 -1.0489e-05 -1.4185e-04 1.1868e-03 -1.1468e-05 -1.5883e-04 
6.2005e-03 4.1141e-05 3.6386e-05 2.4384e-03 2.8536e-05 7.6085e-05 6.0798e-03 8.4487e-06 -2.0230e-05 2.4449e-03 -1.4262e-05 -8.3958e-05 5.9793e-03 1.3495e-05 -6.5220e-05 2.4298e-03 3.6687e-05 2.8526e-05 5.9574e-03 2.8735e-05 4.1035e-05 2.3145e-03 5.3649e-05 -1.3750e-05 6.0512e-03 5.6357e-05 4.7152e-05 2.4585e-03 6.9252e-05 1.6848e-05 
6.7096e-03 -3.1669e-05 7.2902e-05 3.0199e-03 -5.9546e-05 4.2197e-05 6.5776e-03 -5.8586e-05 -2.2411e-05 2.9989e-03 -1.9815e-05 -3.8926e-05 6.5480e-03 -5.6244e-05 -8.8974e-05 3.0006e-03 -4.3781e-05 -3.6031e-05 6.5073e-03 -4.3451e-05 9.0148e-05 2.9609e-03 -5.2963e-05 3.4697e-05 6.6324e-03 3.7113e-05 -1.4349e-05 3.0518e-03 1.6278e-05 1.6954e-05 
6.4888e-03 3.1880e-05 3.2469e-04 3.0417e-03 2.3940e-05 4.2439e-05 6.6742e-03 3.8106e-05 -5.6357e-06 2.9800e-03 8.3826e-06 -4.6304e-05 6.6434e-03 2.5767e-07 -7.5631e-05 2.9851e-03 -1.4927e-05 -3.1930e-05 6.5909e-03 -2.4224e-05 5.0404e-05 2.9589e-03 1.5864e-05 2.0685e-05 6.4166e-03 9.2038e-05 -2.4980e-04 3.0409e-03 9.7347e-05 4.7159e-05 
6.1997e-03 2.2487e-06 6.2612e-05 2.5201e-03 -4.7293e-05 4.3137e-05 6.2384e-03 -5.2735e-05 1.5402e-05 2.4184e-03 -2.9355e-05 -7.2883e-05 6.1841e-03 -5.2809e-05 -2.9541e-05 2.4102e-03 -8.6300e-05 -2.5990e-05 6.0984e-03 -4.9386e-05 -4.0975e-05 2.1729e-03 -5.5007e-05 -1.8796e-04 6.0988e-03 2.6199e-06 3.5507e-05 2.2773e-03 1.3418e-05 2.7065e-04 
4.8908e-03 4.8036e-05 2.3937e-04 1.4230e-03 1.4038e-05 4.5047e-06 5.1324e-03 2.0745e-05 1.7209e-05 1.3730e-03 6.5392e-05 8.2249e-06 5.0654e-03 4.7521e-05 -5.9796e-05 1.2644e-03 2.2799e-05 -1.6692e-04 4.9567e-03 -1.4886e-05 -5.9879e-05 1.2661e-03 -1.9693e-05 1.3293e-04 4.8022e-03 3.7982e-05 -1.2967e-04 1.4171e-03 5.1618e-05 1.9618e-05 
3.1898e-03 -5.1595e-05 5.7158e-05 -4.5848e-04 -5.5948e-05 8.1554e-05 3.2768e-03 -2.5057e-05 1.2050e-05 -3.8435e-04 -4.3288e-05 1.3101e-05 3.2003e-03 1.6810e-05 -4.1224e-05 -3.5876e-04 -5.1598e-05 -1.0515e-05 3.1336e-03 -2.1127e-05 -4.0426e-05 -3.0262e-04 -3.3353e-05 2.3387e-09 3.1582e-03 -3.0812e-05 1.4474e-05 -4.2837e-04 -5.4267e-06 -7.9090e-05 
0.0000e+00 0.0000e+00 0.0000e+00 0.0000e+00 0.0000e+00 0.0000e+00 0.0000e+00 0.0000e+00 0.0000e+00 0.0000e+00 0.0000e+00 0.0000e+00 0.0000e+00 0.0000e+00 0.0000e+00 0.0000e+00 0.0000e+00 0.0000e+00 0.0000e+00 0.0000e+00 0.0000e+00 0.0000e+00 0.0000e+00 0.0000e+00 0.0000e+00 0.0000e+00 0.0000e+00 0.0000e+00 0.0000e+00 0.0000e+00 
0.0000e+00 0.0000e+00 0.0000e+00 0.0000e+00 0.0000e+00 0.0000e+00 0.0000e+00 0.0000e+00 0.0000e+00 0.0000e+00 0.0000e+00 0.0000e+00 0.0000e+00 0.0000e+00 0.0000e+00 0.0000e+00 0.0000e+00 0.0000e+00 0.0000e+00 0.0000e+00 0.0000e+00 0.0000e+00 0.0000e+00 0.0000e+00 0.0000e+00 0.0000e+00 0.0000e+00 0.0000e+00 0.0000e+00 0.0000e+00 
2.5151e-03 6.3914e-05 -7.4749e-06 -5.7226e-04 2.6015e-04 -6.8641e-06 3.1112e-03 -1.4872e-05 -1.7656e-07 -4.2173e-04 3.5527e-05 7.2773e-06 3.0487e-03 2.8740e-05 -4.4241e-05 -3.4607e-04 1.3050e-05 9.9228e-07 3.0644e-03 1.0884e-04 -4.9250e-06 -5.6088e-04 -9.5508e-05 -1.9521e-05 2.9887e-03 -2.5833e-05 -1.6879e-05 -6.3012e-04 -1.2960e-04 -1.4209e-05 
4.6682e-03 -9.9696e-06 -1.4158e-05 1.0170e-03 8.8383e-06 -1.1264e-05 2.9053e-03 -5.0262e-05 -1.5525e-05 1.3284e-03 -1.3444e-04 1.4460e-05 4.5748e-03 -1.1259e-04 1.5336e-05 1.2635e-03 -1.3489e-05 -6.2567e-05 4.4639e-03 1.6357e-05 8.3026e-06 1.0595e-03 8.5994e-06 4.1224e-05 4.4722e-03 4.4787e-05 -2.5598e-05 8.1360e-04 -1.5130e-05 -2.2101e-05 
5.8128e-03 -9.9027e-05 -1.2331e-05 2.1782e-03 -1.4127e-04 -1.1045e-05 5.8181e-03 9.3205e-06 -9.7279e-07 2.3762e-03 -4.8579e-06 1.0148e-05 5.6648e-03 7.2795e-06 1.1077e-05 2.1256e-03 5.6679e-06 -3.3126e-05 3.3146e-03 -6.4740e-05 -6.5372e-05 2.1541e-03 1.0221e-04 3.6116e-05 5.6546e-03 2.1426e-04 -2.2692e-05 2.0020e-03 2.4352e-04 -1.8386e-05 
6.2344e-03 2.2950e-04 -5.2920e-06 2.8523e-03 -9.4771e-05 -5.9877e-06 6.3503e-03 -3.2822e-05 -1.3420e-06 2.8246e-03 -2.1026e-05 4.6777e-05 6.0257e-03 -5.9640e-05 1.3025e-06 2.8928e-03 -7.8108e-05 -8.1036e-06 6.2154e-03 -5.0151e-05 -5.8510e-06 2.7134e-03 2.1349e-06 -2.4764e-05 6.0971e-03 -2.7496e-04 -1.2857e-05 2.9293e-03 7.6458e-06 -8.1469e-06 
6.0320e-03 4.3356e-05 1.9167e-06 2.8777e-03 -1.1110e-06 -1.9732e-06 6.4571e-03 4.6094e-05 -2.4175e-06 2.7842e-03 -6.8259e-06 -5.0858e-06 6.3757e-03 7.3946e-05 -6.3143e-06 2.8384e-03 1.8765e-05 -1.2304e-05 6.3004e-03 -1.3700e-04 -1.9025e-05 2.4944e-03 -1.9778e-04 -1.9141e-05 5.9200e-03 1.0325e-04 -5.3641e-06 2.7218e-03 3.2253e-04 1.4453e-06 
5.6080e-03 -7.1124e-05 9.3267e-06 2.3744e-03 -6.7793e-05 3.6692e-06 6.0586e-03 -2.1140e-05 -4.7041e-06 2.2702e-03 6.6299e-06 -1.1620e-05 6.0512e-03 -6.3489e-05 -1.3670e-05 1.9408e-03 -2.3726e-04 -1.5975e-05 5.8188e-03 -1.2751e-04 -1.8048e-05 1.6530e-03 1.1014e-04 -1.4693e-05 5.4718e-03 9.5171e-05 -2.0825e-06 1.9088e-03 -6.0877e-06 4.8563e-06 
4.6103e-03 7.1328e-05 1.1461e-05 1.2272e-03 7.9445e-05 3.3508e-06 5.0852e-03 2.3709e-05 -6.3250e-06 1.2148e-03 9.4012e-05 -1.4497e-05 4.9455e-03 2.6954e-05 -1.8952e-05 -6.3785e-04 5.2767e-05 2.9866e-05 4.7401e-03 -8.5774e-07 -1.6066e-05 7.9646e-04 1.7081e-04 -1.0902e-05 4.3069e-03 2.3007e-05 -2.3680e-06 1.0490e-03 -2.4444e-04 7.1547e-06 
3.1185e-03 -2.3283e-04 -7.3796e-07 -6.0063e-04 -1.4445e-05 6.1210e-07 3.2562e-03 -3.2316e-05 -8.1841e-06 -4.8495e-04 -7.1166e-05 -1.3737e-05 3.1527e-03 5.7284e-05 -1.5946e-05 -5.1641e-04 5.3797e-05 -1.6720e-05 3.0248e-03 -1.3862e-06 -1.3023e-05 -4.2968e-04 -2.7192e-04 -1.1378e-05 2.8071e-03 1.5491e-04 -4.7953e-06 -4.7611e-04 1.7782e-04 2.1558e-06 
0.0000e+00 0.0000e+00 0.0000e+00 0.0000e+00 0.0000e+00 0.0000e+00 0.0000e+00 0.0000e+00 0.0000e+00 0.0000e+00 0.0000e+00 0.0000e+00 0.0000e+00 0.0000e+00 0.0000e+00 0.0000e+00 0.0000e+00 0.0000e+00 0.0000e+00 0.0000e+00 0.0000e+00 0.0000e+00 0.0000e+00 0.0000e+00 0.0000e+00 0.0000e+00 0.0000e+00 0.0000e+00 0.0000e+00 0.0000e+00 
0.0000e+00 0.0000e+00 0.0000e+00 0.0000e+00 0.0000e+00 0.0000e+00 0.0000e+00 0.0000e+00 0.0000e+00 0.0000e+00 0.0000e+00 0.0000e+00 0.0000e+00 0.0000e+00 0.0000e+00 0.0000e+00 0.0000e+00 0.0000e+00 0.0000e+00 0.0000e+00 0.0000e+00 0.0000e+00 0.0000e+00 0.0000e+00 0.0000e+00 0.0000e+00 0.0000e+00 0.0000e+00 0.0000e+00 0.0000e+00 
3.0695e-03 2.2562e-05 7.3048e-06 -4.5628e-04 4.9819e-05 -2.4957e-05 3.0125e-03 1.5092e-06 5.8219e-06 -4.4243e-04 2.2169e-05 4.1407e-05 2.9685e-03 -1.9442e-05 5.0936e-05 -4.9530e-04 -6.7644e-05 2.2521e-05 2.9745e-03 8.6889e-05 -2.7785e-05 -5.6339e-04 1.3526e-04 1.5250e-05 3.0123e-03 1.7551e-05 3.6439e-05 -4.6670e-04 4.9394e-05 -5.2232e-06 
4.5001e-03 1.2358e-05 -1.4616e-04 9.6450e-04 -4.0269e-06 -2.1128e-04 4.5736e-03 -3.8798e-05 2.5031e-05 1.1492e-03 -9.9346e-05 6.7445e-05 4.4485e-03 -1.1008e-04 9.4552e-05 1.0422e-03 -1.0220e-04 6.7808e-05 4.4524e-03 -2.6334e-05 -3.0005e-05 9.0331e-04 5.6484e-05 -2.1606e-06 4.3543e-03 -8.6627e-06 1.6886e-04 9.4339e-04 -8.9139e-06 1.9411e-04 
5.5655e-03 4.8873e-05 -1.6301e-05 2.0073e-03 3.8340e-05 -7.4970e-05 5.4630e-03 1.3387e-05 2.4782e-05 2.0310e-03 -2.3057e-05 9.3965e-05 5.3566e-03 -2.2974e-06 8.5971e-05 1.8929e-03 9.1967e-05 5.9657e-06 5.3473e-03 2.7505e-05 -2.1963e-05 1.7827e-03 -9.2924e-06 1.4770e-05 5.4303e-03 6.6022e-05 -3.4609e-05 2.0432e-03 8.8508e-05 1.8135e-05 
6.0061e-03 -2.2949e-05 -4.1455e-05 2.4858e-03 -5.2105e-05 -2.4236e-05 5.8827e-03 -6.0925e-05 3.0449e-05 2.4688e-03 -3.5608e-05 3.4851e-05 5.8545e-03 -7.6990e-05 9.3166e-05 2.4421e-03 -1.5830e-05 4.5319e-05 5.8187e-03 -5.3749e-05 -7.7319e-05 2.4140e-03 -9.7980e-05 -2.5546e-05 5.9417e-03 4.5187e-05 3.6854e-05 2.5255e-03 2.1889e-05 1.8199e-05 
5.7994e-03 4.4174e-05 -2.7520e-04 2.4806e-03 3.3317e-05 -1.6017e-05 5.9880e-03 3.5937e-05 1.3714e-05 2.4180e-03 -4.9436e-07 3.7738e-05 5.9586e-03 -1.3894e-05 6.6838e-05 2.4300e-03 -2.8183e-05 2.2671e-05 5.9123e-03 -3.0325e-05 -4.4032e-05 2.4150e-03 1.7503e-05 -6.6143e-06 5.7394e-03 1.0017e-04 2.8332e-04 2.4835e-03 1.0690e-04 5.9604e-06 
5.6064e-03 7.3946e-06 -1.3589e-05 2.0140e-03 -4.3723e-05 -1.7117e-05 5.6409e-03 -5.7505e-05 -4.5559e-06 1.9149e-03 -3.8343e-05 6.5510e-05 5.5933e-03 -6.5480e-05 1.5372e-05 1.9129e-03 -9.4305e-05 1.0222e-05 5.5133e-03 -6.0252e-05 4.7506e-05 1.6866e-03 -5.1304e-05 2.0299e-04 5.5174e-03 4.2314e-06 3.9688e-06 1.7820e-03 1.7908e-05 -2.1301e-04 
4.4687e-03 5.8443e-05 -1.9843e-04 1.0675e-03 1.7445e-05 2.3074e-05 4.7063e-03 1.9352e-05 -5.3703e-06 1.0204e-03 6.0437e-05 -1.9742e-05 4.6475e-03 4.2853e-05 4.5725e-05 9.1418e-04 2.2672e-05 1.6599e-04 4.5491e-03 -1.0362e-05 7.1402e-05 9.3843e-04 -1.6396e-05 -1.1163e-04 4.3954e-03 3.6124e-05 1.6756e-04 1.0782e-03 5.8692e-05 2.6428e-05 
3.0137e-03 -5.0472e-05 -3.9233e-05 -5.7919e-04 -5.0128e-05 -6.8512e-05 3.0960e-03 -3.2517e-05 -2.1839e-06 -4.9569e-04 -4.9680e-05 -1.4546e-05 3.0291e-03 1.2768e-05 3.9085e-05 -4.6370e-04 -5.0266e-05 1.1721e-05 2.9672e-03 -1.4952e-05 5.3377e-05 -4.1002e-04 -3.4473e-05 1.2076e-05 2.9974e-03 -2.6792e-05 8.4993e-06 -5.2585e-04 -4.6584e-06 1.0351e-04 
0.0000e+00 0.0000e+00 0.0000e+00 0.0000e+00 0.0000e+00 0.0000e+00 0.0000e+00 0.0000e+00 0.0000e+00 0.0000e+00 0.0000e+00 0.0000e+00 0.0000e+00 0.0000e+00 0.0000e+00 0.0000e+00 0.0000e+00 0.0000e+00 0.0000e+00 0.0000e+00 0.0000e+00 0.0000e+00 0.0000e+00 0.0000e+00 0.0000e+00 0.0000e+00 0.0000e+00 0.0000e+00 0.0000e+00 0.0000e+00 
0.0000e+00 0.0000e+00 0.0000e+00 0.0000e+00 0.0000e+00 0.0000e+00 0.0000e+00 0.0000e+00 0.0000e+00 0.0000e+00 0.0000e+00 0.0000e+00 0.0000e+00 0.0000e+00 0.0000e+00 0.0000e+00 0.0000e+00 0.0000e+00 0.0000e+00 0.0000e+00 0.0000e+00 0.0000e+00 0.0000e+00 0.0000e+00 0.0000e+00 0.0000e+00 0.0000e+00 0.0000e+00 0.0000e+00 0.0000e+00 
2.7952e-03 4.6839e-05 -1.2230e-05 -6.3843e-04 2.9389e-05 -4.2874e-06 2.7755e-03 2.6465e-05 -1.4254e-05 -6.1869e-04 4.0014e-05 1.7312e-05 2.7327e-03 -6.9307e-06 -1.1295e-06 -5.4378e-04 1.0282e-04 2.8341e-05 2.7193e-03 3.8776e-05 -1.5201e-05 -5.6593e-04 -9.3226e-06 -5.5084e-05 2.7284e-03 3.8949e-05 1.6763e-05 -6.1625e-04 3.3267e-05 -9.9224e-06 
4.0172e-03 1.7696e-06 -6.0690e-05 5.8165e-04 -2.6336e-05 -4.2486e-05 3.9757e-03 -3.7906e-05 1.8462e-05 5.9909e-04 -5.5578e-05 3.0172e-05 3.9496e-03 -8.8637e-05 6.2032e-05 6.8560e-04 -8.2702e-05 1.2662e-04 3.8974e-03 -3.1724e-05 -5.6525e-05 6.3061e-04 1.2845e-05 -1.5110e-04 3.9429e-03 -3.7748e-05 2.0673e-05 6.2945e-04 -8.7712e-06 -1.0714e-05 
4.6986e-03 4.0672e-05 -8.2588e-05 1.2369e-03 4.8694e-05 -8.3009e-05 4.6652e-03 1.6685e-05 -3.0545e-05 1.2230e-03 -1.3740e-05 8.6693e-05 4.6113e-03 -4.9288e-06 9.2297e-05 1.3037e-03 -3.0429e-05 9.9765e-05 4.6554e-03 2.0138e-05 -1.1768e-05 1.2389e-03 8.4386e-05 -1.1431e-04 4.6138e-03 7.6865e-05 3.0038e-05 1.3138e-03 6.7077e-05 -3.1551e-06 
5.0125e-03 -2.0068e-05 -5.1198e-05 1.5546e-03 -2.9363e-05 -5.0484e-05 4.9220e-03 -5.4448e-05 1.1999e-05 1.5371e-03 -7.7473e-05 5.3862e-05 4.9779e-03 -6.1514e-05 3.8076e-05 1.5629e-03 -6.4249e-05 -2.2053e-05 4.9277e-03 -6.4061e-05 -4.5777e-05 1.5711e-03 -4.2109e-05 -3.0614e-05 4.9841e-03 3.0878e-05 3.1295e-05 1.5808e-03 2.6648e-05 7.3942e-07 
5.0159e-03 6.6383e-05 -3.3643e-05 1.5186e-03 3.3030e-05 -4.2955e-05 4.9942e-03 2.1796e-05 -2.5601e-05 1.4895e-03 2.8196e-05 2.0644e-05 4.9713e-03 -3.9703e-05 4.6832e-05 1.5118e-03 -4.0358e-05 -8.7740e-07 4.9891e-03 2.4006e-05 -4.5214e-06 1.5266e-03 3.1881e-05 -3.8366e-06 5.0018e-03 6.0211e-05 -1.2211e-05 1.5384e-03 8.2235e-05 -1.1600e-05 
4.7129e-03 -1.4250e-05 -2.7846e-05 1.1883e-03 -3.2184e-05 -3.7103e-05 4.6999e-03 -4.7008e-05 -2.4291e-05 1.1222e-03 -6.2053e-05 3.0832e-05 4.6806e-03 -6.0087e-05 5.2775e-05 1.1990e-03 -6.6237e-05 3.2463e-05 4.6966e-03 -5.3926e-05 -2.0530e-05 1.1652e-03 -5.0870e-05 -1.8748e-05 4.7151e-03 -1.2101e-05 -1.1936e-06 1.2032e-03 1.1909e-05 -4.0234e-05 
4.0013e-03 4.0488e-05 -4.9852e-05 5.1854e-04 3.0378e-05 -1.8250e-05 4.0162e-03 2.3209e-05 -1.8863e-05 5.0422e-04 2.4275e-05 -1.6601e-05 3.9923e-03 5.0868e-05 3.3600e-05 5.2707e-04 1.9988e-05 2.0205e-05 4.0093e-03 5.4364e-07 2.9252e-05 5.6699e-04 1.8473e-05 4.1330e-05 4.0448e-03 4.0276e-05 -1.7199e-05 5.3415e-04 5.0287e-05 -6.0793e-05 
2.7823e-03 -1.8940e-05 -2.1071e-05 -6.8667e-04 -5.0203e-05 -6.2112e-06 2.7931e-03 -3.2951e-05 -9.1360e-06 -6.8443e-04 -3.6470e-05 -1.8689e-05 2.7748e-03 -3.1575e-05 -1.2115e-05 -6.7232e-04 -3.8526e-05 4.2880e-06 2.7891e-03 -3.2083e-05 2.0399e-05 -6.4063e-04 -2.8517e-05 3.4693e-05 2.8193e-03 -2.6682e-05 -1.4073e-05 -6.6965e-04 -4.5720e-05 -4.8824e-05 
0.0000e+00 0.0000e+00 0.0000e+00 0.0000e+00 0.0000e+00 0.0000e+00 0.0000e+00 0.0000e+00 0.0000e+00 0.0000e+00 0.0000e+00 0.0000e+00 0.0000e+00 0.0000e+00 0.0000e+00 0.0000e+00 0.0000e+00 0.0000e+00 0.0000e+00 0.0000e+00 0.0000e+00 0.0000e+00 0.0000e+00 0.0000e+00 0.0000e+00 0.0000e+00 0.0000e+00 0.0000e+00 0.0000e+00 0.0000e+00 
0.0000e+00 0.0000e+00 0.0000e+00 0.0000e+00 0.0000e+00 0.0000e+00 0.0000e+00 0.0000e+00 0.0000e+00 0.0000e+00 0.0000e+00 0.0000e+00 0.0000e+00 0.0000e+00 0.0000e+00 0.0000e+00 0.0000e+00 0.0000e+00 0.0000e+00 0.0000e+00 0.0000e+00 0.0000e+00 0.0000e+00 0.0000e+00 0.0000e+00 0.0000e+00 0.0000e+00 0.0000e+00 0.0000e+00 0.0000e+00 
2.2526e-03 3.8538e-05 -6.1981e-06 -1.1301e-03 4.0829e-05 -1.1666e-05 2.2407e-03 2.9009e-05 9.4849e-06 -1.0986e-03 4.3632e-05 2.9461e-06 2.1919e-03 -4.7615e-07 1.5198e-05 -1.0415e-03 8.1729e-05 5.3546e-06 2.1267e-03 3.0621e-05 9.2974e-06 -1.0490e-03 -1.2728e-05 1.0017e-05 2.1855e-03 5.9149e-05 8.0435e-06 -1.1018e-03 1.8409e-05 1.4035e-05 
2.7836e-03 -3.0146e-05 -2.4614e-06 -5.9764e-04 -3.1971e-05 -9.1311e-06 2.7636e-03 -3.2525e-05 4.9431e-06 -5.9135e-04 -4.4532e-05 -1.6860e-05 2.7226e-03 -4.7412e-05 4.2744e-05 -4.7737e-04 -6.4823e-05 -9.5358e-05 2.6421e-03 -3.5961e-05 1.6957e-05 -4.8831e-04 -7.5094e-06 1.1480e-04 2.7124e-03 -2.5312e-05 -1.4842e-07 -5.8509e-04 -2.2836e-05 1.4036e-05 
3.0468e-03 4.5067e-05 2.7381e-06 -3.4527e-04 3.2676e-05 -7.8966e-06 3.0325e-03 2.6271e-05 4.9894e-06 -3.4567e-04 1.9119e-05 -1.0478e-05 2.9871e-03 1.5077e-05 3.3436e-05 -2.9826e-04 -1.5115e-06 -7.4277e-06 2.9744e-03 2.7237e-05 2.6376e-05 -3.0111e-04 5.2814e-05 3.5239e-05 2.9911e-03 4.2444e-05 6.8319e-06 -3.3270e-04 5.6941e-05 5.4823e-06 
3.1643e-03 -1.4751e-05 6.6584e-06 -2.5415e-04 -2.8685e-05 -6.6139e-06 3.1537e-03 -4.1709e-05 8.4236e-06 -2.6380e-04 -6.0713e-05 -1.4800e-05 3.1264e-03 -5.5282e-05 1.0074e-05 -2.3498e-04 -5.5485e-05 1.3312e-05 3.1384e-03 -4.6699e-05 3.1368e-05 -2.3678e-04 -3.3172e-05 1.9687e-05 3.1462e-03 -2.1581e-05 1.9318e-05 -2.3936e-04 -6.9706e-07 -3.2808e-06 
3.1734e-03 5.0263e-05 8.2081e-06 -2.7888e-04 3.9239e-05 -1.1912e-06 3.1557e-03 2.7041e-05 9.5226e-08 -2.9564e-04 1.5341e-05 -2.3422e-05 3.1506e-03 6.8346e-06 3.8970e-06 -2.7209e-04 6.7925e-06 2.0613e-06 3.1651e-03 1.5123e-05 3.0905e-05 -2.6340e-04 3.3812e-05 2.6028e-05 3.1766e-03 4.9196e-05 2.9222e-05 -2.6360e-04 5.2788e-05 -5.1035e-08 
3.0623e-03 -2.4502e-05 1.4827e-05 -4.0794e-04 -3.4080e-05 2.5000e-06 3.0456e-03 -4.2488e-05 -1.7169e-06 -4.2190e-04 -4.3638e-05 -1.4198e-05 3.0391e-03 -4.5684e-05 1.2938e-05 -3.9325e-04 -5.1273e-05 3.6469e-06 3.0669e-03 -4.7999e-05 1.9219e-05 -3.7282e-04 -3.6226e-05 1.7302e-05 3.0728e-03 -2.2968e-05 2.4379e-05 -3.8797e-04 -2.1003e-05 -1.2219e-06 