<?xml version="1.0"?>
<!-- openLBMflow v1.0.1, www.lbmflow.com -->
<VTKFile type="ImageData" version="0.1" byte_order="LittleEndian">
  <ImageData WholeExtent="0 9 0 9 0 9" Origin="0 0 0" Spacing="1 1 1">
  <Piece Extent="0 9 0 9 0 9">
    <PointData Scalars="scalars">
      <DataArray type="Float32" Name="Velocity" NumberOfComponents="3" format="ascii">
0.0000e+00 0.0000e+00 0.0000e+00 0.0000e+00 0.0000e+00 0.0000e+00 0.0000e+00 0.0000e+00 0.0000e+00 0.0000e+00 0.0000e+00 0.0000e+00 0.0000e+00 0.0000e+00 0.0000e+00 0.0000e+00 0.0000e+00 0.0000e+00 0.0000e+00 0.0000e+00 0.0000e+00 0.0000e+00 0.0000e+00 0.0000e+00 0.0000e+00 0.0000e+00 0.0000e+00 0.0000e+00 0.0000e+00 0.0000e+00 
0.0000e+00 0.0000e+00 0.0000e+00 0.0000e+00 0.0000e+00 0.0000e+00 0.0000e+00 0.0000e+00 0.0000e+00 0.0000e+00 0.0000e+00 0.0000e+00 0.0000e+00 0.0000e+00 0.0000e+00 0.0000e+00 0.0000e+00 0.0000e+00 0.0000e+00 0.0000e+00 0.0000e+00 0.0000e+00 0.0000e+00 0.0000e+00 0.0000e+00 0.0000e+00 0.0000e+00 0.0000e+00 0.0000e+00 0.0000e+00 
0.0000e+00 0.0000e+00 0.0000e+00 0.0000e+00 0.0000e+00 0.0000e+00 0.0000e+00 0.0000e+00 0.0000e+00 0.0000e+00 0.0000e+00 0.0000e+00 0.0000e+00 0.0000e+00 0.0000e+00 0.0000e+00 0.0000e+00 0.0000e+00 0.0000e+00 0.0000e+00 0.0000e+00 0.0000e+00 0.0000e+00 0.0000e+00 0.0000e+00 0.0000e+00 0.0000e+00 0.0000e+00 0.0000e+00 0.0000e+00 
0.0000e+00 0.0000e+00 0.0000e+00 0.0000e+00 0.0000e+00 0.0000e+00 0.0000e+00 0.0000e+00 0.0000e+00 0.0000e+00 0.0000e+00 0.0000e+00 0.0000e+00 0.0000e+00 0.0000e+00 0.0000e+00 0.0000e+00 0.0000e+00 0.0000e+00 0.0000e+00 0.0000e+00 0.0000e+00 0.0000e+00 0.0000e+00 0.0000e+00 0.0000e+00 0.0000e+00 0.0000e+00 0.0000e+00 0.0000e+00 
0.0000e+00 0.0000e+00 0.0000e+00 0.0000e+00 0.0000e+00 0.0000e+00 0.0000e+00 0.0000e+00 0.0000e+00 0.0000e+00 0.0000e+00 0.0000e+00 0.0000e+00 0.0000e+00 0.0000e+00 0.0000e+00 0.0000e+00 0.0000e+00 0.0000e+00 0.0000e+00 0.0000e+00 0.0000e+00 0.0000e+00 0.0000e+00 0.0000e+00 0.0000e+00 0.0000e+00 0.0000e+00 0.0000e+00 0.0000e+00 
0.0000e+00 0.0000e+00 0.0000e+00 0.0000e+00 0.0000e+00 0.0000e+00 0.0000e+00 0.0000e+00 0.0000e+00 0.0000e+00 0.0000e+00 0.0000e+00 0.0000e+00 0.0000e+00 0.0000e+00 0.0000e+00 0.0000e+00 0.0000e+00 0.0000e+00 0.0000e+00 0.0000e+00 0.0000e+00 0.0000e+00 0.0000e+00 0.0000e+00 0.0000e+00 0.0000e+00 0.0000e+00 0.0000e+00 0.0000e+00 
0.0000e+00 0.0000e+00 0.0000e+00 0.0000e+00 0.0000e+00 0.0000e+00 0.0000e+00 0.0000e+00 0.0000e+00 0.0000e+00 0.0000e+00 0.0000e+00 0.0000e+00 0.0000e+00 0.0000e+00 0.0000e+00 0.0000e+00 0.0000e+00 0.0000e+00 0.0000e+00 0.0000e+00 0.0000e+00 0.0000e+00 0.0000e+00 0.0000e+00 0.0000e+00 0.0000e+00 0.0000e+00 0.0000e+00 0.0000e+00 
0.0000e+00 0.0000e+00 0.0000e+00 0.0000e+00 0.0000e+00 0.0000e+00 0.0000e+00 0.0000e+00 0.0000e+00 0.0000e+00 0.0000e+00 0.0000e+00 0.0000e+00 0.0000e+00 0.0000e+00 0.0000e+00 0.0000e+00 0.0000e+00 0.0000e+00 0.0000e+00 0.0000e+00 0.0000e+00 0.0000e+00 0.0000e+00 0.0000e+00 0.0000e+00 0.0000e+00 0.0000e+00 0.0000e+00 0.0000e+00 
0.0000e+00 0.0000e+00 0.0000e+00 0.0000e+00 0.0000e+00 0.0000e+00 0.0000e+00 0.0000e+00 0.0000e+00 0.0000e+00 0.0000e+00 0.0000e+00 0.0000e+00 0.0000e+00 0.0000e+00 0.0000e+00 0.0000e+00 0.0000e+00 0.0000e+00 0.0000e+00 0.0000e+00 0.0000e+00 0.0000e+00 0.0000e+00 0.0000e+00 0.0000e+00 0.0000e+00 0.0000e+00 0.0000e+00 0.0000e+00 
0.0000e+00 0.0000e+00 0.0000e+00 0.0000e+00 0.0000e+00 0.0000e+00 0.0000e+00 0.0000e+00 0.0000e+00 0.0000e+00 0.0000e+00 0.0000e+00 0.0000e+00 0.0000e+00 0.0000e+00 0.0000e+00 0.0000e+00 0.0000e+00 0.0000e+00 0.0000e+00 0.0000e+00 0.0000e+00 0.0000e+00 0.0000e+00 0.0000e+00 0.0000e+00 0.0000e+00 0.0000e+00 0.0000e+00 0.0000e+00 
0.0000e+00 0.0000e+00 0.0000e+00 0.0000e+00 0.0000e+00 0.0000e+00 0.0000e+00 0.0000e+00 0.0000e+00 0.0000e+00 0.0000e+00 0.0000e+00 0.0000e+00 0.0000e+00 0.0000e+00 0.0000e+00 0.0000e+00 0.0000e+00 0.0000e+00 0.0000e+00 0.0000e+00 0.0000e+00 0.0000e+00 0.0000e+00 0.0000e+00 0.0000e+00 0.0000e+00 0.0000e+00 0.0000e+00 0.0000e+00 
2.2749e-03 1.2554e-04 4.8301e-06 -1.2602e-03 -6.5578e-05 1.3204e-07 2.2544e-03 -3.3913e-05 -2.3210e-05 -1.0870e-03 -1.5926e-05 -1.0255e-05 2.3239e-03 1.8298e-05 7.6098e-06 -1.1369e-03 8.7116e-05 -6.9787e-06 2.3063e-03 -2.0059e-05 -2.1748e-05 -9.6305e-04 1.7120e-04 -1.7782e-05 2.1699e-03 -3.9929e-05 1.1802e-06 -3.5798e-04 1.9946e-05 -2.1170e-05 
2.8809e-03 -1.0723e-04 7.0001e-05 -5.7031e-04 -5.1911e-05 4.1116e-05 3.0210e-03 -1.7683e-05 3.5681e-05 -6.4668e-04 3.7412e-05 -1.6222e-05 3.1282e-03 1.5603e-04 -3.2243e-05 -5.5790e-04 -2.8345e-05 5.9371e-05 4.9531e-03 -2.3946e-04 -4.7181e-05 -2.2428e-04 8.4400e-05 3.8656e-05 2.7666e-03 4.1314e-05 -5.2502e-05 -1.8702e-04 -1.9094e-04 -7.1754e-05 
3.6857e-03 1.2181e-04 3.5778e-05 -4.1845e-04 2.0050e-05 9.5590e-05 3.5454e-03 -2.4445e-04 5.8038e-05 -3.8928e-04 9.3682e-06 -5.4176e-06 3.6511e-03 5.6407e-05 -4.1769e-05 -6.8853e-04 8.7940e-05 3.3405e-05 3.6850e-03 1.2868e-04 -5.4267e-05 1.1601e-04 5.9564e-05 2.2779e-05 2.9292e-03 -2.8645e-06 6.0896e-05 4.5508e-05 -5.5760e-05 -8.1781e-05 
3.8983e-03 -7.5428e-05 6.5099e-06 -6.4252e-04 -7.6109e-05 3.3236e-05 3.8199e-03 1.5957e-05 3.6177e-05 -2.0045e-04 -1.8760e-05 -2.6533e-05 3.6160e-03 -1.7585e-04 -3.2719e-05 -1.0561e-04 6.0738e-05 8.6072e-06 3.6881e-03 2.5460e-04 -4.8105e-05 2.9313e-05 -2.3009e-04 -4.3652e-05 3.5016e-03 -6.8024e-05 -1.0374e-05 1.8268e-05 2.5646e-04 7.3760e-05 
3.5478e-03 -2.2910e-04 3.0942e-06 -1.3214e-04 -1.0011e-05 -1.3346e-05 3.5881e-03 2.4479e-04 2.2898e-05 -2.0617e-04 4.5620e-05 -1.8649e-05 3.4549e-03 4.7171e-05 -2.2712e-05 -8.6610e-05 3.3030e-05 -8.3325e-06 3.5009e-03 2.6927e-05 -3.3094e-05 2.1700e-03 -1.4895e-05 -2.7373e-05 6.5796e-03 -1.0175e-05 -3.1282e-05 -9.3349e-05 2.7172e-06 1.6539e-04 
3.4228e-03 -5.9030e-06 2.8091e-06 -3.1599e-04 1.9193e-04 4.3449e-05 3.3435e-03 -7.0828e-05 1.4619e-06 -2.9709e-04 -1.5065e-04 -7.8964e-06 3.4012e-03 -3.1793e-05 -9.6840e-06 -3.3870e-04 -7.5089e-05 -1.3907e-05 3.5142e-03 -5.5860e-05 -2.9341e-05 -3.6940e-04 6.1488e-05 -2.8577e-05 3.4956e-03 2.8016e-05 -1.6703e-06 -4.2432e-04 -1.5080e-04 5.3168e-05 
3.4203e-03 4.8465e-05 1.4576e-05 -6.5494e-04 3.7593e-05 9.2509e-05 2.9600e-03 1.2061e-04 2.3093e-06 -5.3409e-04 8.2667e-05 7.6124e-06 3.2263e-03 -3.4479e-05 -1.3728e-05 -7.5385e-04 -2.4204e-05 -1.0179e-05 3.2427e-03 -5.5074e-05 -2.0776e-05 -7.8358e-04 -6.4697e-05 2.3244e-05 3.2313e-03 4.6254e-05 -1.7065e-05 -8.6098e-04 9.3569e-05 -6.2607e-05 
2.6970e-03 -7.2262e-05 -1.1306e-06 -1.3561e-03 -3.0486e-04 1.6491e-05 2.7755e-03 -1.7526e-05 -1.2166e-06 -1.5327e-03 9.2872e-05 1.8456e-05 2.6905e-03 -4.4148e-05 7.9131e-06 -1.3727e-03 -2.0557e-05 -6.1241e-06 2.6143e-03 -2.7068e-05 -2.0434e-05 -1.4127e-03 -1.6411e-05 3.4989e-06 2.7428e-03 3.7613e-05 1.0895e-05 -1.6411e-03 1.3383e-04 -1.6987e-05 
0.0000e+00 0.0000e+00 0.0000e+00 0.0000e+00 0.0000e+00 0.0000e+00 0.0000e+00 0.0000e+00 0.0000e+00 0.0000e+00 0.0000e+00 0.0000e+00 0.0000e+00 0.0000e+00 0.0000e+00 0.0000e+00 0.0000e+00 0.0000e+00 0.0000e+00 0.0000e+00 0.0000e+00 0.0000e+00 0.0000e+00 0.0000e+00 0.0000e+00 0.0000e+00 0.0000e+00 0.0000e+00 0.0000e+00 0.0000e+00 
0.0000e+00 0.0000e+00 0.0000e+00 0.0000e+00 0.0000e+00 0.0000e+00 0.0000e+00 0.0000e+00 0.0000e+00 0.0000e+00 0.0000e+00 0.0000e+00 0.0000e+00 0.0000e+00 0.0000e+00 0.0000e+00 0.0000e+00 0.0000e+00 0.0000e+00 0.0000e+00 0.0000e+00 0.0000e+00 0.0000e+00 0.0000e+00 0.0000e+00 0.0000e+00 0.0000e+00 0.0000e+00 0.0000e+00 0.0000e+00 
2.8700e-03 3.0717e-05 -7.6142e-05 -5.6156e-04 -2.8752e-05 -1.3730e-05 2.8713e-03 2.1003e-05 5.7799e-05 -6.3500e-04 1.5149e-06 6.2544e-05 2.8732e-03 3.3489e-05 9.8801e-06 -6.0121e-04 8.7678e-05 4.7629e-06 2.9091e-03 6.8797e-06 4.6310e-06 -4.8684e-04 4.7211e-05 -6.1123e-05 2.8448e-03 5.0742e-05 -1.1322e-05 -5.2281e-04 6.2482e-05 -7.3670e-06 
4.1723e-03 -2.9557e-05 -2.3909e-05 7.1477e-04 -8.6431e-05 7.3242e-05 4.2108e-03 -7.2006e-05 -7.0058e-06 5.9474e-04 -2.4914e-05 8.3149e-06 4.2438e-03 -1.7594e-05 3.3779e-05 6.8159e-04 -1.5359e-05 -3.0760e-05 4.2716e-03 -1.0230e-05 3.3160e-06 8.3131e-04 -4.6455e-05 -5.6174e-05 4.2484e-03 -2.6445e-06 -1.5251e-05 8.3387e-04 3.0947e-05 3.3140e-05 
5.0335e-03 5.8895e-06 5.2084e-05 1.3810e-03 -5.5433e-06 3.9980e-05 5.0644e-03 -2.4919e-05 2.2219e-05 1.3604e-03 3.7664e-06 -5.2340e-06 5.2366e-03 6.6138e-05 -1.5048e-04 1.2171e-03 5.4136e-05 -1.9936e-04 5.2610e-03 9.5533e-05 2.0356e-04 1.4444e-03 8.6396e-05 9.4692e-06 5.1245e-03 5.3514e-06 -2.9626e-05 1.6446e-03 2.2755e-06 2.4760e-04 
5.6356e-03 -7.6426e-05 -1.4946e-04 1.7469e-03 -3.6578e-05 5.7106e-05 5.5678e-03 -2.1359e-05 2.3672e-04 1.7581e-03 -1.3067e-05 3.0740e-06 5.4549e-03 2.4029e-05 -1.1674e-05 1.8206e-03 5.2402e-05 -4.1627e-05 5.5207e-03 6.9890e-05 -8.1703e-05 1.8525e-03 2.0147e-05 -4.5225e-05 5.5402e-03 -7.7793e-05 3.1289e-05 1.8669e-03 -1.0749e-04 2.8992e-05 
5.4242e-03 1.1103e-05 7.1487e-05 1.7443e-03 -9.0566e-06 1.2005e-04 5.3402e-03 2.8079e-05 9.8989e-06 1.7484e-03 5.7804e-05 -3.6231e-06 5.4740e-03 6.1364e-05 -3.9560e-05 1.8848e-03 4.8968e-05 -1.1147e-04 5.6560e-03 4.5675e-05 -1.3336e-04 1.8783e-03 2.8593e-05 3.0938e-05 5.5838e-03 5.7930e-06 5.8682e-05 1.8780e-03 -1.4307e-05 -8.4443e-05 
5.1694e-03 -2.6076e-05 6.1549e-05 1.2914e-03 -3.6828e-05 7.8801e-05 5.1133e-03 -2.3913e-05 4.0859e-05 1.3350e-03 1.0298e-05 5.0771e-06 5.1898e-03 -4.5503e-06 -3.2302e-05 1.4308e-03 -2.5566e-05 -6.3297e-05 5.3179e-03 -7.0719e-05 -1.0259e-04 1.4482e-03 -6.3202e-05 -5.4628e-05 5.3075e-03 8.4739e-06 2.4055e-05 1.4093e-03 -1.5539e-05 2.2032e-05 
4.4517e-03 1.1148e-05 1.1865e-05 5.9159e-04 2.7215e-05 -1.4605e-04 4.4724e-03 6.5855e-05 4.0113e-05 6.4575e-04 4.9671e-05 1.3136e-04 4.4772e-03 3.6543e-05 -1.2344e-05 5.7348e-04 5.7466e-06 -1.4544e-05 4.5363e-03 -8.0359e-06 -3.0294e-05 5.8024e-04 -8.1818e-07 -4.0990e-05 4.5369e-03 2.4089e-05 -9.5583e-06 4.9254e-04 2.4544e-05 7.4048e-05 
3.1395e-03 -4.8899e-05 3.7797e-05 -8.5182e-04 -9.8347e-06 2.6236e-05 3.1919e-03 1.3494e-06 -5.2209e-05 -8.3868e-04 -2.1143e-05 -2.5975e-05 3.1940e-03 -1.6376e-05 6.9874e-05 -8.0607e-04 -2.9076e-05 1.7673e-05 3.1620e-03 -1.4065e-05 -1.0660e-06 -8.1350e-04 -2.8944e-05 3.6517e-06 3.1923e-03 -6.0185e-06 -4.9870e-05 -8.5880e-04 -6.7236e-05 -2.0059e-05 
0.0000e+00 0.0000e+00 0.0000e+00 0.0000e+00 0.0000e+00 0.0000e+00 0.0000e+00 0.0000e+00 0.0000e+00 0.0000e+00 0.0000e+00 0.0000e+00 0.0000e+00 0.0000e+00 0.0000e+00 0.0000e+00 0.0000e+00 0.0000e+00 0.0000e+00 0.0000e+00 0.0000e+00 0.0000e+00 0.0000e+00 0.0000e+00 0.0000e+00 0.0000e+00 0.0000e+00 0.0000e+00 0.0000e+00 0.0000e+00 
0.0000e+00 0.0000e+00 0.0000e+00 0.0000e+00 0.0000e+00 0.0000e+00 0.0000e+00 0.0000e+00 0.0000e+00 0.0000e+00 0.0000e+00 0.0000e+00 0.0000e+00 0.0000e+00 0.0000e+00 0.0000e+00 0.0000e+00 0.0000e+00 0.0000e+00 0.0000e+00 0.0000e+00 0.0000e+00 0.0000e+00 0.0000e+00 0.0000e+00 0.0000e+00 0.0000e+00 0.0000e+00 0.0000e+00 0.0000e+00 
3.1152e-03 -6.0770e-06 2.6399e-05 -4.2110e-04 2.3596e-05 4.6212e-05 3.0724e-03 1.3702e-05 3.5662e-05 -4.9620e-04 1.5141e-05 -1.3197e-05 3.1578e-03 4.6996e-05 -7.4262e-06 -4.9363e-04 -3.4858e-06 1.0161e-05 3.1855e-03 1.6076e-05 1.2487e-05 -4.6194e-04 4.8275e-05 -2.8041e-05 3.1922e-03 2.5858e-05 -4.8547e-05 -4.0235e-04 8.9927e-05 -1.2432e-05 
4.8552e-03 -2.2942e-06 8.2067e-05 1.2808e-03 -7.6739e-05 1.0076e-04 4.8214e-03 -7.5509e-05 2.3559e-05 1.2315e-03 -3.9869e-05 -1.2865e-05 4.9042e-03 -1.1982e-05 -5.6665e-06 7.8129e-04 -2.6166e-04 -2.0231e-04 4.9151e-03 -1.0728e-05 -2.6700e-06 8.6145e-04 2.1997e-04 1.5194e-04 4.9661e-03 -4.6215e-05 -5.9848e-05 1.3079e-03 5.3141e-06 -9.4168e-07 
5.8864e-03 5.0969e-06 7.3330e-05 2.2031e-03 -2.2644e-05 1.2691e-04 5.9302e-03 6.6006e-06 7.7369e-05 2.2569e-03 1.5299e-05 -1.2959e-05 5.9073e-03 3.9656e-05 -6.8340e-05 1.7379e-03 1.2275e-04 -9.1706e-05 5.9895e-03 7.5052e-05 -2.2182e-05 1.7134e-03 1.4299e-05 -1.1578e-05 5.9669e-03 2.4860e-05 -5.3491e-05 2.3105e-03 2.6371e-05 -1.0875e-05 
6.3785e-03 -8.2018e-05 3.7090e-05 2.6869e-03 -3.1666e-05 5.5681e-05 6.3902e-03 -4.4542e-05 4.5946e-05 2.6911e-03 -2.1672e-05 1.7262e-05 6.4648e-03 8.4846e-06 -4.9324e-05 2.5050e-03 2.8686e-04 -5.5743e-05 6.4856e-03 2.1599e-05 -4.9777e-05 2.4927e-03 -2.4159e-04 -2.3183e-05 6.4728e-03 -1.7947e-05 -9.7655e-06 2.7102e-03 -1.0914e-04 -2.8387e-06 
6.4615e-03 1.7182e-05 9.1203e-05 2.6659e-03 2.3102e-05 5.1557e-05 6.3812e-03 1.4946e-05 1.2964e-05 2.7322e-03 5.0698e-05 -4.6545e-05 6.5148e-03 5.6541e-05 -6.0427e-05 2.7704e-03 6.6965e-05 -5.7285e-05 6.5550e-03 5.1223e-05 -9.8227e-05 2.7538e-03 2.9976e-05 -9.5900e-05 6.4869e-03 1.4829e-05 2.4377e-05 2.7493e-03 -1.1439e-05 1.2961e-04 
5.9887e-03 -6.7951e-05 4.7928e-05 2.1548e-03 -6.3237e-05 6.9951e-05 5.9744e-03 8.8357e-06 2.5021e-05 2.2058e-03 3.5427e-05 -4.4936e-05 6.0778e-03 1.3963e-05 -5.5364e-05 2.2542e-03 -1.3053e-05 -3.8426e-05 6.0987e-03 -2.4463e-05 -4.9201e-05 2.2393e-03 -8.0665e-05 -6.1279e-05 6.0761e-03 -5.4073e-05 8.9606e-06 2.1942e-03 -4.2295e-06 6.6183e-05 
4.9615e-03 -1.2317e-05 5.1473e-05 1.1249e-03 2.2206e-05 7.7107e-05 5.0532e-03 5.5631e-05 5.6721e-05 1.1462e-03 4.8266e-05 -1.6283e-06 5.0893e-03 4.7585e-05 -2.7262e-05 1.2277e-03 1.9773e-05 -2.9343e-05 5.1162e-03 3.2662e-05 -4.6703e-05 1.1935e-03 4.3418e-05 -3.9806e-05 5.1317e-03 1.2632e-05 -3.5557e-05 1.1358e-03 -5.7488e-06 3.6425e-06 
3.3067e-03 -2.9538e-05 2.2206e-05 -6.0442e-04 -2.1324e-05 4.1445e-05 3.3093e-03 -1.3286e-05 1.2198e-05 -5.9600e-04 -1.2885e-05 1.1596e-05 3.3657e-03 -1.7668e-06 -1.1939e-05 -5.4568e-04 -2.4273e-05 -1.2447e-05 3.3949e-03 -2.4004e-05 -7.1162e-06 -5.5571e-04 -6.7961e-06 -2.1434e-05 3.3477e-03 -1.7751e-05 -2.4833e-06 -6.0646e-04 -9.6885e-05 3.6660e-07 
0.0000e+00 0.0000e+00 0.0000e+00 0.0000e+00 0.0000e+00 0.0000e+00 0.0000e+00 0.0000e+00 0.0000e+00 0.0000e+00 0.0000e+00 0.0000e+00 0.0000e+00 0.0000e+00 0.0000e+00 0.0000e+00 0.0000e+00 0.0000e+00 0.0000e+00 0.0000e+00 0.0000e+00 0.0000e+00 0.0000e+00 0.0000e+00 0.0000e+00 0.0000e+00 0.0000e+00 0.0000e+00 0.0000e+00 0.0000e+00 
0.0000e+00 0.0000e+00 0.0000e+00 0.0000e+00 0.0000e+00 0.0000e+00 0.0000e+00 0.0000e+00 0.0000e+00 0.0000e+00 0.0000e+00 0.0000e+00 0.0000e+00 0.0000e+00 0.0000e+00 0.0000e+00 0.0000e+00 0.0000e+00 0.0000e+00 0.0000e+00 0.0000e+00 0.0000e+00 0.0000e+00 0.0000e+00 0.0000e+00 0.0000e+00 0.0000e+00 0.0000e+00 0.0000e+00 0.0000e+00 
3.1857e-03 5.7014e-05 3.4751e-05 -3.7568e-04 2.1178e-05 -1.1768e-05 3.1198e-03 5.6304e-06 -3.1427e-05 -3.9655e-04 1.0515e-05 2.9631e-05 3.2165e-03 4.3126e-05 4.1314e-05 -5.3430e-04 -1.5500e-04 -4.1209e-05 3.2677e-03 1.7296e-05 6.9181e-06 -5.3998e-04 2.4642e-04 1.6501e-05 3.2560e-03 1.7337e-06 -3.4674e-05 -3.5045e-04 6.5363e-05 -1.7998e-06 
5.0626e-03 -4.6405e-05 2.1474e-05 1.3857e-03 -5.1882e-05 3.5858e-05 5.0203e-03 -6.3411e-05 2.3995e-05 1.4270e-03 -4.8035e-05 1.6369e-05 5.0660e-03 -5.5913e-05 -3.1648e-06 1.0486e-03 -3.6274e-05 4.5807e-05 5.0841e-03 -1.7603e-05 8.5460e-06 1.0281e-03 -2.4735e-05 -4.2944e-05 5.0750e-03 -3.0000e-06 4.3309e-06 1.3933e-03 -5.4282e-06 -1.4605e-05 
6.2228e-03 2.3457e-06 -1.7485e-06 2.3750e-03 -2.3331e-05 5.9653e-05 6.2229e-03 -6.0175e-06 2.4329e-05 2.4729e-03 2.3598e-05 1.4369e-05 6.1634e-03 2.7644e-05 -3.5022e-05 2.0918e-03 2.2139e-04 2.6715e-04 6.1650e-03 8.8035e-05 2.3192e-06 1.9880e-03 -8.2159e-05 -3.2132e-04 6.1539e-03 3.4767e-05 4.8314e-05 2.3636e-03 2.8095e-05 7.4470e-07 
6.7436e-03 -8.3721e-05 4.0028e-05 2.8365e-03 -8.2508e-05 4.9784e-05 6.7453e-03 -6.1594e-05 -1.0465e-05 2.8839e-03 -3.0840e-05 -5.9991e-07 6.7311e-03 2.0351e-05 -1.6721e-05 2.9346e-03 5.4452e-05 2.6174e-05 6.7255e-03 2.6111e-05 -6.7205e-06 2.8908e-03 -2.3042e-05 -1.8238e-05 6.7401e-03 -5.3878e-05 3.9773e-07 2.8627e-03 -5.5492e-05 -4.6454e-05 
6.7303e-03 -6.2629e-06 2.7642e-05 2.9008e-03 2.4260e-05 3.1445e-05 6.7127e-03 3.0139e-05 3.5420e-05 2.9557e-03 3.1294e-05 1.9396e-05 6.7871e-03 6.5675e-05 -2.2352e-05 2.9479e-03 7.4541e-05 -6.9991e-05 6.7668e-03 5.0516e-05 -2.0071e-05 2.6661e-03 -9.5007e-06 -2.4429e-04 6.7844e-03 2.6137e-05 -5.0336e-05 2.6972e-03 3.6538e-05 2.3942e-04 
6.1643e-03 -4.5000e-05 3.4726e-05 2.4210e-03 -4.1425e-05 3.8506e-05 6.2191e-03 -3.0437e-06 4.5997e-05 2.4492e-03 3.4940e-05 -2.5655e-05 6.3178e-03 1.3685e-05 -2.1516e-05 2.4301e-03 -8.4162e-06 -4.0444e-05 6.2771e-03 -4.3208e-05 -4.5024e-05 2.3807e-03 -5.0537e-05 -3.1912e-05 6.2367e-03 -5.5808e-05 -4.8871e-05 2.3990e-03 -7.8413e-05 3.6664e-05 
5.0066e-03 -8.5043e-06 1.7265e-04 1.2725e-03 1.5903e-05 2.7939e-05 5.0143e-03 5.8867e-05 -1.7159e-04 1.1440e-03 8.9994e-05 -1.7340e-04 5.0951e-03 4.9569e-05 1.6780e-04 1.2003e-03 2.2907e-05 1.5289e-04 5.2340e-03 3.0817e-05 -6.2157e-05 1.3393e-03 3.4096e-05 -7.8034e-06 5.0622e-03 4.0267e-06 -1.1823e-04 1.2836e-03 -2.5910e-05 -1.0752e-05 
3.3643e-03 -5.5397e-05 3.0070e-05 -6.0715e-04 -5.1034e-05 6.0466e-06 3.4090e-03 -1.9900e-05 -4.6975e-06 -6.3051e-04 -4.0713e-05 -3.5804e-05 3.4374e-03 -7.0833e-06 -6.3382e-06 -5.4619e-04 -2.7657e-05 5.8283e-05 3.4297e-03 1.1632e-05 -2.7304e-05 -5.6425e-04 -4.4692e-06 -9.0695e-05 3.3863e-03 -2.2276e-05 1.4070e-05 -6.3147e-04 -5.4697e-05 6.5013e-05 
0.0000e+00 0.0000e+00 0.0000e+00 0.0000e+00 0.0000e+00 0.0000e+00 0.0000e+00 0.0000e+00 0.0000e+00 0.0000e+00 0.0000e+00 0.0000e+00 0.0000e+00 0.0000e+00 0.0000e+00 0.0000e+00 0.0000e+00 0.0000e+00 0.0000e+00 0.0000e+00 0.0000e+00 0.0000e+00 0.0000e+00 0.0000e+00 0.0000e+00 0.0000e+00 0.0000e+00 0.0000e+00 0.0000e+00 0.0000e+00 
0.0000e+00 0.0000e+00 0.0000e+00 0.0000e+00 0.0000e+00 0.0000e+00 0.0000e+00 0.0000e+00 0.0000e+00 0.0000e+00 0.0000e+00 0.0000e+00 0.0000e+00 0.0000e+00 0.0000e+00 0.0000e+00 0.0000e+00 0.0000e+00 0.0000e+00 0.0000e+00 0.0000e+00 0.0000e+00 0.0000e+00 0.0000e+00 0.0000e+00 0.0000e+00 0.0000e+00 0.0000e+00 0.0000e+00 0.0000e+00 
3.1006e-03 6.6731e-05 -6.1322e-06 -4.7888e-04 4.5843e-05 2.7671e-06 3.0864e-03 -2.5896e-05 8.4825e-06 -3.4783e-04 1.3425e-05 2.0547e-05 3.0667e-03 4.3334e-06 1.7802e-05 -3.8133e-04 8.7678e-05 4.7629e-06 3.2327e-03 4.7152e-05 -2.1748e-05 -4.2591e-04 1.5749e-04 -2.7641e-05 3.1574e-03 7.3689e-05 -2.6888e-05 -3.5798e-04 1.9946e-05 -2.1170e-05 
4.9880e-03 -1.0352e-04 -6.0595e-06 1.2656e-03 -3.3117e-05 1.9938e-06 4.9535e-03 -2.2454e-05 1.0993e-05 1.3441e-03 -3.4955e-05 3.4675e-05 4.9396e-03 -1.0864e-04 3.8655e-05 1.2283e-03 5.8750e-06 1.9461e-04 4.9531e-03 -2.3946e-04 -4.7181e-05 1.1232e-03 -1.0327e-04 -1.9115e-04 4.8863e-03 4.8436e-05 -4.0602e-05 1.1893e-03 -3.4160e-05 -3.0660e-05 
6.1341e-03 3.4939e-05 8.7692e-07 2.1852e-03 -1.7003e-05 5.2173e-06 6.1060e-03 -4.5030e-05 1.2966e-05 2.2781e-03 -1.2178e-05 2.4060e-05 6.0690e-03 2.0861e-05 3.3751e-05 2.3470e-03 1.0413e-04 2.8227e-05 5.7679e-03 8.1507e-05 -1.2716e-06 2.2099e-03 6.1339e-05 -3.5525e-05 6.0307e-03 5.0108e-05 -3.6329e-05 1.9645e-03 2.3603e-05 -1.3527e-05 
6.6596e-03 -7.2308e-05 4.5009e-06 2.4095e-03 -1.1825e-04 9.2420e-06 6.6115e-03 -6.1418e-05 1.3773e-05 2.6683e-03 -3.7155e-05 4.2863e-06 6.5845e-03 2.6533e-05 1.7946e-05 2.7266e-03 -2.3199e-05 2.5400e-05 6.5198e-03 2.0660e-05 -5.8321e-06 2.4334e-03 -1.5988e-04 -2.6454e-05 6.5575e-03 -9.9009e-05 -3.1529e-05 2.4004e-03 1.5276e-04 -1.5748e-05 
6.5622e-03 8.1580e-06 7.4563e-06 2.6902e-03 -8.0728e-06 1.2248e-05 6.5960e-03 7.1472e-05 1.4463e-05 2.6977e-03 4.7954e-05 8.4516e-06 6.5495e-03 1.0355e-04 6.8944e-06 2.7024e-03 4.5594e-05 2.9492e-06 6.6144e-03 1.6188e-05 -9.6736e-06 2.1700e-03 -1.4895e-05 -2.7373e-05 6.5796e-03 -3.4672e-05 -3.2293e-05 2.2600e-03 8.8692e-05 -1.3116e-05 
5.8797e-03 1.1425e-04 1.1085e-05 2.2848e-03 -4.3315e-05 1.7768e-05 3.3435e-03 -7.0828e-05 1.4619e-06 2.0878e-03 -2.0066e-04 5.7912e-06 6.0024e-03 1.7742e-04 -3.4875e-07 2.0674e-03 1.7219e-04 -6.0524e-06 6.1021e-03 -6.4004e-05 -1.2814e-05 1.9163e-03 1.9278e-04 -2.6410e-05 5.9451e-03 -1.4989e-04 -2.7009e-05 1.9980e-03 -2.8799e-04 -9.3090e-06 
4.7828e-03 -2.0724e-05 1.1059e-05 1.1152e-03 1.7459e-05 1.6985e-05 4.7401e-03 6.8957e-05 1.1879e-05 8.0239e-04 6.8238e-05 3.1072e-06 4.8508e-03 3.8908e-05 -2.7116e-06 8.4365e-04 8.1187e-05 -8.8652e-06 5.1204e-03 1.0313e-05 -1.5419e-05 1.1316e-03 -5.7407e-05 -2.3991e-05 4.6764e-03 2.2860e-05 -1.7065e-05 1.1071e-03 1.4910e-05 -6.6253e-06 
3.2371e-03 -1.9460e-04 6.8945e-06 -6.9909e-04 -3.2820e-05 1.0742e-05 3.2474e-03 1.4988e-04 7.8159e-06 -9.1599e-04 9.2872e-05 1.8456e-05 3.3528e-03 -2.1854e-04 -1.5413e-06 -8.3542e-04 -1.8633e-04 -6.9254e-06 3.3660e-03 4.9489e-05 -9.7183e-06 -6.4775e-04 -1.3583e-04 -1.3104e-05 3.3493e-03 1.3849e-04 -1.1255e-05 -7.4959e-04 8.4958e-05 -2.7770e-06 
0.0000e+00 0.0000e+00 0.0000e+00 0.0000e+00 0.0000e+00 0.0000e+00 0.0000e+00 0.0000e+00 0.0000e+00 0.0000e+00 0.0000e+00 0.0000e+00 0.0000e+00 0.0000e+00 0.0000e+00 0.0000e+00 0.0000e+00 0.0000e+00 0.0000e+00 0.0000e+00 0.0000e+00 0.0000e+00 0.0000e+00 0.0000e+00 0.0000e+00 0.0000e+00 0.0000e+00 0.0000e+00 0.0000e+00 0.0000e+00 
0.0000e+00 0.0000e+00 0.0000e+00 0.0000e+00 0.0000e+00 0.0000e+00 0.0000e+00 0.0000e+00 0.0000e+00 0.0000e+00 0.0000e+00 0.0000e+00 0.0000e+00 0.0000e+00 0.0000e+00 0.0000e+00 0.0000e+00 0.0000e+00 0.0000e+00 0.0000e+00 0.0000e+00 0.0000e+00 0.0000e+00 0.0000e+00 0.0000e+00 0.0000e+00 0.0000e+00 0.0000e+00 0.0000e+00 0.0000e+00 
3.0825e-03 6.8951e-05 -5.3394e-05 -5.1737e-04 2.0582e-05 -5.1761e-06 3.0410e-03 -6.0316e-06 4.2213e-05 -4.9947e-04 2.3790e-05 4.7013e-06 3.0896e-03 2.5341e-05 -1.9109e-05 -4.5918e-04 -2.4523e-06 6.0005e-05 3.0937e-03 2.7115e-05 2.5493e-06 -4.7541e-04 9.3420e-05 -2.5416e-05 3.1159e-03 2.0019e-05 1.5721e-05 -4.6576e-04 5.0490e-05 -3.3461e-05 
4.7332e-03 -4.2850e-05 -3.8034e-05 1.0069e-03 -5.0319e-05 -4.7324e-05 4.6940e-03 -6.3092e-05 -2.3293e-05 1.1073e-03 -6.2170e-05 3.4010e-05 4.7194e-03 -6.8437e-05 7.3935e-05 1.1275e-03 -5.7817e-05 7.3099e-05 4.7173e-03 -2.0134e-05 2.7351e-05 1.0913e-03 -1.8385e-05 -3.2997e-05 4.7329e-03 -4.4269e-06 -4.6269e-05 1.0744e-03 -1.7788e-06 -3.8543e-05 
5.7408e-03 7.9854e-06 -1.2454e-05 1.8384e-03 -7.0329e-06 -6.0759e-05 5.7245e-03 3.0237e-06 -1.1494e-05 1.9499e-03 -1.0207e-07 3.3361e-05 5.6685e-03 4.6114e-06 1.1598e-04 1.9910e-03 5.7854e-05 2.1539e-05 5.6695e-03 6.6294e-05 2.5297e-05 1.8851e-03 8.0530e-05 7.0831e-05 5.6659e-03 5.1330e-05 -9.0512e-05 1.8797e-03 2.9197e-05 -3.8348e-05 
6.1923e-03 -7.2897e-05 -4.5532e-05 2.2133e-03 -7.1087e-05 -3.0746e-05 6.1537e-03 -5.4427e-05 3.6639e-05 2.2280e-03 -4.7672e-05 3.7801e-05 6.1507e-03 -1.3466e-05 6.9420e-05 2.3077e-03 1.1279e-05 1.4728e-06 6.1451e-03 1.8873e-06 -3.5598e-08 2.3049e-03 -9.2607e-06 -1.2235e-05 6.1623e-03 -3.3978e-05 -2.2553e-05 2.2722e-03 -3.9437e-05 2.1863e-05 
6.1637e-03 9.0810e-06 -1.4049e-05 2.2703e-03 3.3418e-05 2.0445e-07 6.1187e-03 3.1336e-05 2.7117e-06 2.2750e-03 3.5769e-05 9.4811e-06 6.1736e-03 4.8399e-05 3.0460e-05 2.2880e-03 4.2098e-05 4.9852e-05 6.1811e-03 4.1322e-05 -1.4284e-05 2.0341e-03 -6.1474e-06 2.0820e-04 6.1977e-03 4.5032e-05 3.5863e-05 2.0795e-03 6.1622e-05 -2.4315e-04 
5.6740e-03 -3.3953e-05 -2.5989e-05 1.8620e-03 -3.9797e-05 -5.7731e-06 5.6952e-03 -1.2356e-05 -1.1203e-05 1.8775e-03 2.1455e-05 4.4638e-05 5.7875e-03 1.1651e-07 2.5880e-05 1.8559e-03 -1.1911e-05 1.0845e-05 5.7504e-03 -4.4970e-05 -5.2005e-06 1.8200e-03 -4.9298e-05 -3.9441e-06 5.7262e-03 -4.2423e-05 3.5414e-05 1.8605e-03 -6.2760e-05 -4.6773e-05 
4.6638e-03 -2.4842e-06 -1.5828e-04 8.7789e-04 1.3169e-05 -3.3006e-06 4.6501e-03 6.2358e-05 1.9210e-04 7.3922e-04 9.0565e-05 1.8327e-04 4.7326e-03 4.8963e-05 -1.6943e-04 7.9473e-04 2.4105e-05 -1.7230e-04 4.8640e-03 3.3022e-05 2.2205e-05 9.4371e-04 3.2195e-05 -2.8363e-05 4.7167e-03 5.4209e-06 9.9543e-05 9.0702e-04 -1.1092e-05 2.2490e-06 
3.2524e-03 -5.3951e-05 -2.4610e-05 -7.6525e-04 -4.8210e-05 -8.9806e-07 3.2845e-03 -2.4122e-05 9.6955e-06 -7.9317e-04 -4.2938e-05 3.7303e-05 3.3152e-03 -1.1057e-05 3.4053e-06 -7.0934e-04 -3.4422e-05 -6.6091e-05 3.3049e-03 7.0994e-06 1.2869e-05 -7.2242e-04 -3.5617e-06 7.3005e-05 3.2757e-03 -1.8708e-05 -2.4989e-05 -7.7927e-04 -5.2475e-05 -6.6317e-05 
0.0000e+00 0.0000e+00 0.0000e+00 0.0000e+00 0.0000e+00 0.0000e+00 0.0000e+00 0.0000e+00 0.0000e+00 0.0000e+00 0.0000e+00 0.0000e+00 0.0000e+00 0.0000e+00 0.0000e+00 0.0000e+00 0.0000e+00 0.0000e+00 0.0000e+00 0.0000e+00 0.0000e+00 0.0000e+00 0.0000e+00 0.0000e+00 0.0000e+00 0.0000e+00 0.0000e+00 0.0000e+00 0.0000e+00 0.0000e+00 
0.0000e+00 0.0000e+00 0.0000e+00 0.0000e+00 0.0000e+00 0.0000e+00 0.0000e+00 0.0000e+00 0.0000e+00 0.0000e+00 0.0000e+00 0.0000e+00 0.0000e+00 0.0000e+00 0.0000e+00 0.0000e+00 0.0000e+00 0.0000e+00 0.0000e+00 0.0000e+00 0.0000e+00 0.0000e+00 0.0000e+00 0.0000e+00 0.0000e+00 0.0000e+00 0.0000e+00 0.0000e+00 0.0000e+00 0.0000e+00 
2.9145e-03 2.9070e-05 -1.0912e-05 -7.8821e-04 3.4201e-05 -3.2130e-05 2.8950e-03 1.9889e-05 -2.1952e-05 -8.1686e-04 3.7494e-05 2.8631e-05 2.9078e-03 -1.3401e-05 1.7092e-05 -6.8175e-04 6.2091e-05 5.9983e-05 2.8051e-03 1.7075e-05 -4.0087e-06 -6.5300e-04 -3.4249e-06 -4.6222e-05 2.9039e-03 5.6729e-05 1.5643e-05 -7.1970e-04 3.9510e-05 -1.5139e-05 
4.1620e-03 -2.1033e-06 -6.6239e-05 4.1726e-04 -4.0002e-05 -3.2617e-05 4.1265e-03 -7.5869e-05 2.6520e-06 4.6118e-04 -4.8349e-05 4.6938e-05 4.1710e-03 -1.5179e-05 3.4685e-05 5.4985e-04 -8.6054e-05 1.1454e-04 4.1010e-03 -2.1912e-05 2.2845e-05 5.8810e-04 3.1374e-05 -7.9398e-05 4.2119e-03 -4.7950e-05 1.6258e-05 5.2943e-04 -1.4042e-05 -4.5567e-05 
4.8726e-03 7.0581e-06 -4.1834e-05 1.0365e-03 6.6096e-06 -3.0651e-05 4.8224e-03 2.4763e-05 1.0219e-05 1.1198e-03 -2.6888e-06 4.7011e-05 4.8236e-03 4.9772e-06 8.0655e-05 1.1538e-03 9.3614e-06 8.3762e-05 4.8946e-03 4.7351e-05 -1.6283e-06 1.1461e-03 7.3711e-05 -4.1159e-05 4.8690e-03 4.9239e-05 -1.8444e-05 1.1950e-03 5.0789e-05 -4.0149e-05 
5.1807e-03 -5.3588e-05 1.0919e-05 1.3412e-03 -3.8441e-05 1.4853e-05 5.1487e-03 -4.2373e-05 3.6429e-06 1.3136e-03 -5.4103e-05 2.1558e-05 5.1901e-03 -5.1616e-05 3.5458e-05 1.3887e-03 4.0810e-06 9.5731e-06 5.2252e-03 -1.0163e-05 -1.9106e-05 1.4042e-03 -3.0639e-05 -6.0320e-05 5.2482e-03 1.3878e-05 -3.3584e-06 1.3966e-03 -1.9591e-05 2.6851e-05 
5.1889e-03 3.7402e-05 7.3036e-06 1.3026e-03 3.5965e-05 8.3019e-06 5.1294e-03 1.4964e-05 3.1330e-05 1.3196e-03 3.4076e-05 5.8282e-05 5.2185e-03 2.3998e-05 2.7216e-05 1.3619e-03 3.0054e-05 -1.5795e-05 5.2195e-03 3.3781e-05 -3.0685e-05 1.3651e-03 4.7497e-05 -2.4151e-05 5.2456e-03 4.7647e-05 -2.6246e-05 1.3774e-03 2.0241e-05 -2.6725e-05 
4.8982e-03 -5.9642e-05 -3.3378e-06 9.7571e-04 -4.5074e-05 -2.7491e-06 4.8489e-03 -9.2569e-06 2.3408e-05 9.8921e-04 1.2190e-05 4.7680e-05 4.9309e-03 -2.6435e-06 1.9538e-05 1.0433e-03 -2.8375e-05 -7.6166e-06 4.9529e-03 -1.6391e-05 -1.2688e-05 1.0395e-03 -3.7129e-05 -1.1562e-06 4.9481e-03 -3.6122e-05 -2.6005e-05 1.0184e-03 -3.2985e-05 -4.8921e-05 
4.2099e-03 3.2967e-06 -2.8504e-05 2.8554e-04 1.4551e-05 3.4180e-07 4.2148e-03 4.4955e-05 1.2097e-06 2.8910e-04 4.9975e-05 8.7066e-06 4.2739e-03 5.1213e-05 1.2580e-05 3.6688e-04 3.1727e-05 -1.2083e-05 4.3065e-03 4.2975e-05 1.8252e-05 3.5541e-04 4.0113e-05 1.9876e-05 4.3101e-03 1.9575e-05 -1.5434e-05 3.1941e-04 1.0754e-05 -4.0465e-05 
3.0337e-03 -3.4974e-05 -8.5781e-06 -9.4193e-04 -4.4556e-05 -3.2741e-06 3.0232e-03 -1.9650e-05 -7.6717e-07 -9.3579e-04 -2.2885e-05 -3.1929e-08 3.0635e-03 -7.8151e-06 8.3352e-06 -8.8868e-04 -2.8456e-05 -5.1222e-06 3.1007e-03 -2.9387e-05 -1.1357e-05 -8.9085e-04 -1.2306e-05 1.1760e-05 3.0711e-03 -1.3302e-05 -7.5991e-06 -9.2061e-04 -6.7338e-05 -2.4133e-05 
0.0000e+00 0.0000e+00 0.0000e+00 0.0000e+00 0.0000e+00 0.0000e+00 0.0000e+00 0.0000e+00 0.0000e+00 0.0000e+00 0.0000e+00 0.0000e+00 0.0000e+00 0.0000e+00 0.0000e+00 0.0000e+00 0.0000e+00 0.0000e+00 0.0000e+00 0.0000e+00 0.0000e+00 0.0000e+00 0.0000e+00 0.0000e+00 0.0000e+00 0.0000e+00 0.0000e+00 0.0000e+00 0.0000e+00 0.0000e+00 
0.0000e+00 0.0000e+00 0.0000e+00 0.0000e+00 0.0000e+00 0.0000e+00 0.0000e+00 0.0000e+00 0.0000e+00 0.0000e+00 0.0000e+00 0.0000e+00 0.0000e+00 0.0000e+00 0.0000e+00 0.0000e+00 0.0000e+00 0.0000e+00 0.0000e+00 0.0000e+00 0.0000e+00 0.0000e+00 0.0000e+00 0.0000e+00 0.0000e+00 0.0000e+00 0.0000e+00 0.0000e+00 0.0000e+00 0.0000e+00 
2.4336e-03 3.1711e-05 -6.0733e-06 -1.3312e-03 3.6653e-05 -9.6370e-06 2.4298e-03 2.5826e-05 -1.5890e-05 -1.2861e-03 4.4843e-05 -5.3343e-06 2.3629e-03 -1.9209e-05 4.1960e-05 -1.1353e-03 1.2381e-04 -1.2711e-05 2.1928e-03 1.7323e-05 1.8292e-05 -1.1062e-03 -7.5098e-05 2.0161e-05 2.3672e-03 7.1029e-05 -1.8703e-05 -1.2501e-03 1.7010e-05 6.0457e-06 
2.9665e-03 -2.4039e-05 -3.7904e-06 -8.1229e-04 -2.3656e-05 -1.5435e-05 2.9260e-03 -3.0375e-05 6.8790e-06 -7.7489e-04 -4.4765e-05 -7.6308e-07 2.8948e-03 -3.6151e-05 4.2687e-05 -6.3776e-04 -8.5714e-05 -6.5509e-05 2.7626e-03 -3.1104e-05 1.7640e-05 -5.9972e-04 2.9466e-05 6.1821e-05 2.9445e-03 -2.5632e-05 -2.7820e-05 -7.2205e-04 -1.6406e-05 -1.4383e-06 
3.2357e-03 3.1000e-05 -1.3443e-05 -5.7089e-04 2.2118e-05 -2.1525e-05 3.1946e-03 1.3417e-05 2.3695e-05 -5.3300e-04 2.4352e-07 3.7360e-06 3.1917e-03 2.6911e-05 2.8307e-05 -4.7418e-04 -2.4436e-06 4.9343e-06 3.1938e-03 3.8253e-05 5.8857e-06 -4.3433e-04 6.3106e-05 4.7485e-06 3.2411e-03 2.4439e-05 -2.4588e-06 -4.7721e-04 5.5005e-05 -1.6836e-05 
3.3571e-03 -3.2831e-05 -1.3897e-05 -4.8703e-04 -3.7970e-05 6.8466e-06 3.3263e-03 -3.5026e-05 2.2480e-05 -4.5644e-04 -4.9444e-05 3.2333e-06 3.3596e-03 -4.1282e-05 1.3465e-05 -4.2740e-04 -2.8971e-05 4.1641e-07 3.3788e-03 -1.2351e-05 5.7222e-06 -4.2459e-04 -8.4211e-06 -1.4162e-05 3.4013e-03 -1.7754e-05 1.8708e-05 -4.1035e-04 -1.2333e-05 -2.4941e-05 
3.3731e-03 3.0228e-05 -1.0041e-05 -5.1024e-04 2.7894e-05 -2.0367e-05 3.3473e-03 3.0553e-05 2.1673e-05 -5.0271e-04 2.4860e-05 7.2797e-06 3.3903e-03 1.5933e-05 9.4592e-06 -4.6025e-04 1.9177e-05 -2.1079e-05 3.4116e-03 3.1568e-05 9.0783e-08 -4.5394e-04 5.1335e-05 1.0700e-05 3.4207e-03 4.3326e-05 2.4877e-05 -4.5723e-04 2.8183e-05 -8.5169e-06 
3.2854e-03 -4.0617e-05 -7.7207e-06 -6.5203e-04 -3.5983e-05 -1.5475e-05 3.2529e-03 -2.9469e-05 6.3154e-06 -6.4297e-04 -1.6107e-05 -2.9964e-06 3.2944e-03 -1.5987e-05 5.9487e-06 -5.8852e-04 -2.3991e-05 -1.7867e-05 3.3303e-03 -1.7194e-05 3.8852e-07 -5.9506e-04 -1.8081e-05 5.6385e-06 3.3218e-03 -2.5144e-05 3.1453e-05 -6.0401e-04 -3.7095e-05 -2.0379e-06 