<?xml version="1.0"?>
<!-- openLBMflow v1.0.1, www.lbmflow.com -->
<VTKFile type="ImageData" version="0.1" byte_order="LittleEndian">
  <ImageData WholeExtent="0 9 0 9 0 9" Origin="0 0 0" Spacing="1 1 1">
  <Piece Extent="0 9 0 9 0 9">
    <PointData Scalars="scalars">
      <DataArray type="Float32" Name="Velocity" NumberOfComponents="3" format="ascii">
0.0000e+00 0.0000e+00 0.0000e+00 0.0000e+00 0.0000e+00 0.0000e+00 0.0000e+00 0.0000e+00 0.0000e+00 0.0000e+00 0.0000e+00 0.0000e+00 0.0000e+00 0.0000e+00 0.0000e+00 0.0000e+00 0.0000e+00 0.0000e+00 0.0000e+00 0.0000e+00 0.0000e+00 0.0000e+00 0.0000e+00 0.0000e+00 0.0000e+00 0.0000e+00 0.0000e+00 0.0000e+00 0.0000e+00 0.0000e+00 
0.0000e+00 0.0000e+00 0.0000e+00 0.0000e+00 0.0000e+00 0.0000e+00 0.0000e+00 0.0000e+00 0.0000e+00 0.0000e+00 0.0000e+00 0.0000e+00 0.0000e+00 0.0000e+00 0.0000e+00 0.0000e+00 0.0000e+00 0.0000e+00 0.0000e+00 0.0000e+00 0.0000e+00 0.0000e+00 0.0000e+00 0.0000e+00 0.0000e+00 0.0000e+00 0.0000e+00 0.0000e+00 0.0000e+00 0.0000e+00 
0.0000e+00 0.0000e+00 0.0000e+00 0.0000e+00 0.0000e+00 0.0000e+00 0.0000e+00 0.0000e+00 0.0000e+00 0.0000e+00 0.0000e+00 0.0000e+00 0.0000e+00 0.0000e+00 0.0000e+00 0.0000e+00 0.0000e+00 0.0000e+00 0.0000e+00 0.0000e+00 0.0000e+00 0.0000e+00 0.0000e+00 0.0000e+00 0.0000e+00 0.0000e+00 0.0000e+00 0.0000e+00 0.0000e+00 0.0000e+00 
0.0000e+00 0.0000e+00 0.0000e+00 0.0000e+00 0.0000e+00 0.0000e+00 0.0000e+00 0.0000e+00 0.0000e+00 0.0000e+00 0.0000e+00 0.0000e+00 0.0000e+00 0.0000e+00 0.0000e+00 0.0000e+00 0.0000e+00 0.0000e+00 0.0000e+00 0.0000e+00 0.0000e+00 0.0000e+00 0.0000e+00 0.0000e+00 0.0000e+00 0.0000e+00 0.0000e+00 0.0000e+00 0.0000e+00 0.0000e+00 
0.0000e+00 0.0000e+00 0.0000e+00 0.0000e+00 0.0000e+00 0.0000e+00 0.0000e+00 0.0000e+00 0.0000e+00 0.0000e+00 0.0000e+00 0.0000e+00 0.0000e+00 0.0000e+00 0.0000e+00 0.0000e+00 0.0000e+00 0.0000e+00 0.0000e+00 0.0000e+00 0.0000e+00 0.0000e+00 0.0000e+00 0.0000e+00 0.0000e+00 0.0000e+00 0.0000e+00 0.0000e+00 0.0000e+00 0.0000e+00 
0.0000e+00 0.0000e+00 0.0000e+00 0.0000e+00 0.0000e+00 0.0000e+00 0.0000e+00 0.0000e+00 0.0000e+00 0.0000e+00 0.0000e+00 0.0000e+00 0.0000e+00 0.0000e+00 0.0000e+00 0.0000e+00 0.0000e+00 0.0000e+00 0.0000e+00 0.0000e+00 0.0000e+00 0.0000e+00 0.0000e+00 0.0000e+00 0.0000e+00 0.0000e+00 0.0000e+00 0.0000e+00 0.0000e+00 0.0000e+00 
0.0000e+00 0.0000e+00 0.0000e+00 0.0000e+00 0.0000e+00 0.0000e+00 0.0000e+00 0.0000e+00 0.0000e+00 0.0000e+00 0.0000e+00 0.0000e+00 0.0000e+00 0.0000e+00 0.0000e+00 0.0000e+00 0.0000e+00 0.0000e+00 0.0000e+00 0.0000e+00 0.0000e+00 0.0000e+00 0.0000e+00 0.0000e+00 0.0000e+00 0.0000e+00 0.0000e+00 0.0000e+00 0.0000e+00 0.0000e+00 
0.0000e+00 0.0000e+00 0.0000e+00 0.0000e+00 0.0000e+00 0.0000e+00 0.0000e+00 0.0000e+00 0.0000e+00 0.0000e+00 0.0000e+00 0.0000e+00 0.0000e+00 0.0000e+00 0.0000e+00 0.0000e+00 0.0000e+00 0.0000e+00 0.0000e+00 0.0000e+00 0.0000e+00 0.0000e+00 0.0000e+00 0.0000e+00 0.0000e+00 0.0000e+00 0.0000e+00 0.0000e+00 0.0000e+00 0.0000e+00 
0.0000e+00 0.0000e+00 0.0000e+00 0.0000e+00 0.0000e+00 0.0000e+00 0.0000e+00 0.0000e+00 0.0000e+00 0.0000e+00 0.0000e+00 0.0000e+00 0.0000e+00 0.0000e+00 0.0000e+00 0.0000e+00 0.0000e+00 0.0000e+00 0.0000e+00 0.0000e+00 0.0000e+00 0.0000e+00 0.0000e+00 0.0000e+00 0.0000e+00 0.0000e+00 0.0000e+00 0.0000e+00 0.0000e+00 0.0000e+00 
0.0000e+00 0.0000e+00 0.0000e+00 0.0000e+00 0.0000e+00 0.0000e+00 0.0000e+00 0.0000e+00 0.0000e+00 0.0000e+00 0.0000e+00 0.0000e+00 0.0000e+00 0.0000e+00 0.0000e+00 0.0000e+00 0.0000e+00 0.0000e+00 0.0000e+00 0.0000e+00 0.0000e+00 0.0000e+00 0.0000e+00 0.0000e+00 0.0000e+00 0.0000e+00 0.0000e+00 0.0000e+00 0.0000e+00 0.0000e+00 
0.0000e+00 0.0000e+00 0.0000e+00 0.0000e+00 0.0000e+00 0.0000e+00 0.0000e+00 0.0000e+00 0.0000e+00 0.0000e+00 0.0000e+00 0.0000e+00 0.0000e+00 0.0000e+00 0.0000e+00 0.0000e+00 0.0000e+00 0.0000e+00 0.0000e+00 0.0000e+00 0.0000e+00 0.0000e+00 0.0000e+00 0.0000e+00 0.0000e+00 0.0000e+00 0.0000e+00 0.0000e+00 0.0000e+00 0.0000e+00 
2.6829e-03 -8.3463e-05 -6.5979e-06 -1.3888e-03 1.2221e-04 -9.1801e-06 2.4768e-03 -4.7382e-05 -5.9539e-08 -1.1730e-03 1.2323e-04 -9.4042e-06 2.3744e-03 -4.3017e-07 -2.3962e-06 -1.1637e-03 -1.6250e-04 1.3848e-05 2.3526e-03 7.9754e-05 -1.3728e-05 -1.0906e-03 2.4007e-04 -1.7957e-05 2.3667e-03 4.9791e-05 5.4684e-06 -1.1076e-03 -1.1717e-04 1.4314e-05 
3.4111e-03 -5.5861e-05 5.6530e-06 -6.8960e-04 -5.6412e-05 2.5144e-05 3.0423e-03 1.1984e-05 -3.4802e-05 -5.9734e-04 -2.4457e-05 6.6666e-05 2.8999e-03 -1.7953e-05 -3.2947e-05 -5.8707e-04 -2.6450e-05 -7.8142e-05 3.1461e-03 -1.0600e-04 1.8060e-05 -5.6827e-04 -1.1630e-04 9.8191e-05 3.2385e-03 -2.4025e-05 1.6721e-05 -8.3151e-04 5.1113e-05 -6.7645e-05 
3.4427e-03 1.6118e-04 6.2183e-06 -3.4985e-04 2.2864e-05 1.3659e-05 3.3198e-03 5.4117e-05 -3.3507e-05 -3.4000e-04 -4.8246e-05 2.2703e-05 3.3387e-03 2.9053e-05 -2.0994e-07 -3.8338e-04 9.3437e-05 -3.8271e-05 3.2986e-03 -4.6238e-06 1.0617e-04 -2.8092e-04 -3.9070e-05 8.6302e-05 3.4806e-03 -1.2715e-04 3.8742e-05 -2.9881e-04 8.2292e-05 -2.5210e-05 
3.3556e-03 -5.9304e-05 -2.2869e-06 -7.1719e-05 1.8038e-05 3.4554e-05 3.3373e-03 -4.9127e-07 -1.4801e-05 -1.7577e-04 -9.4019e-05 -6.2147e-05 3.7848e-03 1.9938e-04 2.7730e-05 -2.9261e-04 -8.8403e-05 2.4527e-05 3.7517e-03 -2.1365e-04 -1.2202e-05 -2.7363e-04 3.9159e-05 5.9390e-05 3.4726e-03 -6.7342e-05 2.8391e-06 -1.5419e-04 -9.2748e-06 5.4833e-05 
3.2663e-03 1.6178e-05 -2.2800e-05 8.5694e-05 3.6314e-06 4.0396e-05 3.1826e-03 2.7407e-05 1.1378e-05 -5.9248e-05 5.9391e-05 -8.3075e-05 3.9161e-03 5.8675e-05 3.2066e-05 -7.3448e-04 1.3032e-05 -9.7724e-06 4.0252e-03 -1.3154e-05 5.6895e-06 -2.9466e-04 8.6406e-06 4.5120e-05 3.4349e-03 4.5804e-05 -4.0401e-05 -8.6885e-05 4.8855e-05 7.8158e-05 
3.0625e-03 -7.2844e-06 6.2379e-06 -4.2504e-05 -8.7718e-05 2.2864e-05 3.0950e-03 -4.8616e-05 6.3425e-06 -1.5284e-04 2.0232e-05 -3.3506e-05 3.4586e-03 -2.7667e-04 3.1885e-05 -3.2854e-04 2.6718e-05 4.7118e-06 5.9999e-03 2.8670e-05 9.0937e-06 -2.5729e-04 3.1109e-05 3.0671e-05 3.1756e-03 -1.1336e-05 -4.1004e-05 -1.1780e-04 -9.6037e-05 4.3275e-05 
2.7261e-03 2.7462e-05 4.2105e-05 -3.7724e-04 1.9204e-05 1.2378e-05 2.7794e-03 1.8571e-05 -9.8336e-07 -4.5801e-04 3.6816e-05 -1.5821e-05 2.8361e-03 -1.1450e-05 1.2546e-05 -4.6579e-04 4.4626e-05 1.5047e-05 2.8398e-03 3.8792e-05 -3.2651e-05 -4.1135e-04 1.5395e-05 9.4443e-06 2.6834e-03 3.4068e-05 -3.7966e-05 -2.8055e-04 -9.3257e-06 2.6095e-05 
2.1009e-03 -1.1864e-04 2.5905e-05 -9.2992e-04 -2.8978e-05 8.6969e-06 2.1656e-03 -3.5465e-05 6.2585e-06 -1.0017e-03 1.5160e-05 -1.6419e-07 2.1812e-03 1.8562e-07 -9.0799e-06 -9.6927e-04 -2.0875e-05 8.0594e-06 2.1222e-03 1.7132e-05 -2.2430e-05 -9.0291e-04 -5.1583e-05 -2.2880e-05 2.0765e-03 4.5999e-05 3.0762e-06 -8.6445e-04 -1.9747e-05 3.3789e-05 
0.0000e+00 0.0000e+00 0.0000e+00 0.0000e+00 0.0000e+00 0.0000e+00 0.0000e+00 0.0000e+00 0.0000e+00 0.0000e+00 0.0000e+00 0.0000e+00 0.0000e+00 0.0000e+00 0.0000e+00 0.0000e+00 0.0000e+00 0.0000e+00 0.0000e+00 0.0000e+00 0.0000e+00 0.0000e+00 0.0000e+00 0.0000e+00 0.0000e+00 0.0000e+00 0.0000e+00 0.0000e+00 0.0000e+00 0.0000e+00 
0.0000e+00 0.0000e+00 0.0000e+00 0.0000e+00 0.0000e+00 0.0000e+00 0.0000e+00 0.0000e+00 0.0000e+00 0.0000e+00 0.0000e+00 0.0000e+00 0.0000e+00 0.0000e+00 0.0000e+00 0.0000e+00 0.0000e+00 0.0000e+00 0.0000e+00 0.0000e+00 0.0000e+00 0.0000e+00 0.0000e+00 0.0000e+00 0.0000e+00 0.0000e+00 0.0000e+00 0.0000e+00 0.0000e+00 0.0000e+00 
3.0304e-03 2.7061e-05 -3.6004e-05 -6.7444e-04 4.2194e-05 -3.0784e-05 3.0138e-03 2.1873e-06 2.1126e-05 -6.7177e-04 4.3802e-05 -3.7100e-05 2.9568e-03 3.1976e-05 -1.4057e-05 -4.1627e-04 8.2151e-05 -1.3326e-05 2.9250e-03 1.0098e-04 -1.7838e-05 -5.5909e-04 -3.7715e-05 -4.5349e-05 2.9836e-03 1.1333e-05 6.1430e-06 -6.4230e-04 3.4120e-05 7.2180e-05 
4.4937e-03 -3.1896e-05 1.3384e-04 6.7397e-04 -3.0500e-05 -5.2522e-05 4.3277e-03 -1.6830e-05 -1.8470e-05 6.9457e-04 -8.3447e-06 -1.0512e-04 4.3405e-03 -3.8104e-06 -1.1687e-05 7.3871e-04 -3.9869e-05 9.2378e-05 4.3256e-03 -6.3987e-05 -1.5309e-06 7.3480e-04 -7.5393e-05 -7.0402e-05 4.5650e-03 -5.9040e-05 -1.3223e-04 7.1447e-04 -5.0383e-05 8.0135e-05 
5.1206e-03 3.4622e-05 -7.7877e-07 1.4367e-03 4.6075e-05 -1.4351e-05 5.1017e-03 4.1805e-05 -2.8963e-05 1.4456e-03 1.4163e-05 -4.4563e-05 5.1288e-03 3.1597e-05 -1.2910e-05 1.2224e-03 7.2676e-06 -2.1106e-04 5.1065e-03 -1.1424e-05 5.9204e-05 1.2725e-03 1.1171e-05 2.5604e-04 5.1542e-03 1.1436e-05 1.5931e-05 1.4832e-03 1.0819e-05 3.8922e-05 
5.4407e-03 -2.8303e-05 -1.3336e-06 1.8692e-03 -1.3790e-05 -4.0649e-05 5.4151e-03 -3.4302e-06 -3.0433e-05 1.8274e-03 -2.1976e-05 4.6474e-05 5.4907e-03 -8.9156e-07 -1.7732e-05 1.7488e-03 -4.6755e-05 -8.8849e-08 5.4947e-03 -2.4360e-05 2.1823e-05 1.5232e-03 -1.9653e-05 -2.3438e-04 5.4805e-03 -7.1427e-05 2.9302e-05 1.5888e-03 -3.1264e-05 2.6385e-04 
5.3681e-03 1.3418e-05 2.9962e-05 1.9823e-03 2.0068e-05 -5.5032e-05 5.3568e-03 3.0833e-05 -3.1671e-05 1.9304e-03 4.5945e-05 7.0878e-05 5.6567e-03 3.2540e-05 -2.7789e-04 1.8211e-03 2.4801e-05 2.9482e-05 5.7161e-03 2.6782e-05 2.5269e-04 1.8021e-03 2.1654e-05 -8.0107e-07 5.4380e-03 1.7453e-05 3.4672e-05 1.9147e-03 5.3263e-06 -2.2881e-05 
4.9806e-03 -4.9701e-05 3.2228e-05 1.6571e-03 -4.6744e-05 1.1101e-05 4.9435e-03 -2.8863e-05 -2.9738e-05 1.6041e-03 -7.0917e-06 -3.0038e-06 5.0153e-03 -5.9185e-06 -6.4351e-05 1.5613e-03 1.4016e-05 1.3976e-05 5.0543e-03 1.7069e-07 3.4008e-05 1.5616e-03 -5.4997e-06 -2.6174e-05 5.0170e-03 -2.8028e-05 3.7908e-06 1.6617e-03 -7.1579e-05 -3.5577e-06 
4.1535e-03 -1.7347e-05 4.6369e-06 9.2391e-04 -5.8741e-06 3.2654e-05 4.1291e-03 3.1765e-05 -8.8482e-06 8.7186e-04 4.5357e-05 -1.7168e-05 4.1658e-03 3.6753e-05 -2.6614e-05 8.6364e-04 3.1517e-05 -1.1326e-05 4.1598e-03 3.1086e-05 -8.2712e-06 9.1330e-04 4.0146e-05 -7.0420e-05 4.1610e-03 3.1289e-05 8.3888e-06 9.8001e-04 -1.1453e-05 4.8547e-05 
2.7346e-03 -4.8649e-05 9.2360e-06 -4.0995e-04 -4.0984e-05 1.6936e-05 2.7455e-03 -2.2588e-05 -1.1777e-05 -4.5336e-04 -2.4018e-05 -1.0574e-05 2.7437e-03 -1.0385e-05 -3.4565e-06 -4.4841e-04 -2.9493e-05 -1.7599e-05 2.7359e-03 6.9878e-06 -6.0240e-07 -4.1946e-04 8.4256e-06 -2.4189e-05 2.7084e-03 -5.9047e-06 -1.2465e-05 -4.0553e-04 -5.5908e-05 1.4949e-05 
0.0000e+00 0.0000e+00 0.0000e+00 0.0000e+00 0.0000e+00 0.0000e+00 0.0000e+00 0.0000e+00 0.0000e+00 0.0000e+00 0.0000e+00 0.0000e+00 0.0000e+00 0.0000e+00 0.0000e+00 0.0000e+00 0.0000e+00 0.0000e+00 0.0000e+00 0.0000e+00 0.0000e+00 0.0000e+00 0.0000e+00 0.0000e+00 0.0000e+00 0.0000e+00 0.0000e+00 0.0000e+00 0.0000e+00 0.0000e+00 
0.0000e+00 0.0000e+00 0.0000e+00 0.0000e+00 0.0000e+00 0.0000e+00 0.0000e+00 0.0000e+00 0.0000e+00 0.0000e+00 0.0000e+00 0.0000e+00 0.0000e+00 0.0000e+00 0.0000e+00 0.0000e+00 0.0000e+00 0.0000e+00 0.0000e+00 0.0000e+00 0.0000e+00 0.0000e+00 0.0000e+00 0.0000e+00 0.0000e+00 0.0000e+00 0.0000e+00 0.0000e+00 0.0000e+00 0.0000e+00 
3.2191e-03 9.9534e-06 2.6291e-05 -4.3025e-04 1.2899e-05 2.5804e-06 3.1966e-03 3.3301e-05 -2.1880e-05 -4.3820e-04 2.7942e-05 -1.8346e-05 3.2029e-03 3.6033e-05 -2.3533e-05 -4.1154e-04 7.9283e-05 -1.6755e-05 3.1820e-03 -5.8569e-06 2.6228e-05 -4.2577e-04 -2.4145e-05 5.0218e-05 3.1962e-03 2.8395e-05 -1.1590e-06 -4.2032e-04 6.6095e-05 -1.2360e-05 
4.9440e-03 -3.8740e-05 -1.9703e-05 1.3401e-03 -2.3107e-05 -3.8829e-05 4.9795e-03 -1.8831e-05 -2.2389e-05 1.3329e-03 5.8908e-06 2.4570e-05 4.9857e-03 -1.4535e-05 -2.1392e-05 1.0857e-03 -2.3928e-04 -5.8979e-05 4.9401e-03 -3.8999e-05 -2.4167e-05 1.1378e-03 1.3987e-04 4.8687e-05 5.0545e-03 -4.5537e-05 8.9315e-05 1.3260e-03 -1.6031e-05 4.8047e-05 
5.9923e-03 3.5728e-05 6.2666e-05 2.3471e-03 6.7819e-05 -2.3594e-05 6.0163e-03 3.7911e-05 -3.0579e-05 2.3158e-03 3.7809e-05 -3.6772e-05 6.0075e-03 2.5133e-05 -3.4227e-05 1.8669e-03 -2.2239e-06 -4.9203e-05 5.9726e-03 -1.8413e-05 -7.9583e-05 1.6258e-03 -2.4966e-04 3.8711e-05 6.0679e-03 1.3355e-05 1.2095e-04 2.0955e-03 2.5696e-04 1.1943e-04 
6.5007e-03 -1.2976e-05 2.6830e-05 2.8633e-03 1.6537e-05 3.5523e-05 6.4874e-03 1.6406e-06 -3.4384e-05 2.8568e-03 -1.9473e-07 -3.2434e-05 6.4699e-03 9.1297e-06 -3.5387e-05 2.5546e-03 2.1348e-04 -3.6627e-05 6.4751e-03 -5.8561e-05 -3.3256e-05 2.1322e-03 -2.6047e-04 -1.0194e-06 6.5183e-03 -7.7104e-05 1.1468e-04 2.3082e-03 -1.0250e-04 8.5147e-05 
6.4476e-03 2.2398e-05 5.4395e-05 2.9177e-03 4.7245e-05 8.6017e-05 6.3689e-03 4.6546e-05 2.7028e-05 2.9229e-03 3.8054e-05 -4.5104e-05 6.4256e-03 3.7302e-05 -1.3577e-05 2.8954e-03 2.5325e-05 2.9380e-05 6.4028e-03 1.9233e-05 -4.2523e-05 2.6326e-03 2.6850e-04 -8.2616e-06 6.4007e-03 -1.2039e-05 9.5741e-06 2.6978e-03 -2.6695e-04 -2.1078e-05 
5.9156e-03 -6.6957e-05 4.5906e-05 2.5022e-03 -4.8755e-05 5.8196e-05 5.8798e-03 -2.8225e-06 -1.0751e-06 2.5000e-03 -2.9225e-06 -2.3195e-05 5.8969e-03 5.8130e-06 -6.2885e-06 2.4409e-03 -2.0140e-05 -3.8316e-05 5.8874e-03 -1.7571e-05 -6.4445e-05 2.4978e-03 -3.1913e-05 -2.7749e-05 5.9150e-03 -3.4881e-05 4.0415e-05 2.4937e-03 -3.0810e-05 5.5693e-05 
4.8360e-03 -1.0113e-05 6.0632e-05 1.5421e-03 1.3581e-05 5.0230e-05 4.7876e-03 3.9840e-05 1.1773e-05 1.5096e-03 4.2776e-05 -1.3111e-05 4.8104e-03 3.5546e-05 -2.0428e-05 1.5097e-03 2.1760e-05 -1.8949e-05 4.7965e-03 5.8891e-05 -5.1830e-05 1.5243e-03 2.8592e-05 -3.7372e-05 4.8303e-03 -1.2288e-05 5.8995e-06 1.5344e-03 -5.2186e-06 3.4339e-05 
3.0340e-03 2.3668e-06 5.2774e-05 -2.1871e-04 -4.9720e-05 4.5066e-05 3.0071e-03 -2.1648e-05 1.1686e-05 -2.2672e-04 -2.4599e-05 -7.3170e-06 3.0119e-03 -1.0376e-05 -1.6340e-05 -2.2355e-04 -2.1434e-05 -1.2548e-05 3.0068e-03 -1.2847e-05 -2.2180e-05 -2.3465e-04 -9.6097e-06 -3.7212e-05 3.0138e-03 -4.7637e-05 -1.2550e-05 -2.0491e-04 -4.4586e-05 2.3344e-05 
0.0000e+00 0.0000e+00 0.0000e+00 0.0000e+00 0.0000e+00 0.0000e+00 0.0000e+00 0.0000e+00 0.0000e+00 0.0000e+00 0.0000e+00 0.0000e+00 0.0000e+00 0.0000e+00 0.0000e+00 0.0000e+00 0.0000e+00 0.0000e+00 0.0000e+00 0.0000e+00 0.0000e+00 0.0000e+00 0.0000e+00 0.0000e+00 0.0000e+00 0.0000e+00 0.0000e+00 0.0000e+00 0.0000e+00 0.0000e+00 
0.0000e+00 0.0000e+00 0.0000e+00 0.0000e+00 0.0000e+00 0.0000e+00 0.0000e+00 0.0000e+00 0.0000e+00 0.0000e+00 0.0000e+00 0.0000e+00 0.0000e+00 0.0000e+00 0.0000e+00 0.0000e+00 0.0000e+00 0.0000e+00 0.0000e+00 0.0000e+00 0.0000e+00 0.0000e+00 0.0000e+00 0.0000e+00 0.0000e+00 0.0000e+00 0.0000e+00 0.0000e+00 0.0000e+00 0.0000e+00 
3.2271e-03 -2.1999e-06 -3.2914e-05 -3.3862e-04 1.4890e-05 -2.2801e-05 3.1739e-03 1.7744e-05 -1.0872e-05 -3.1998e-04 8.2115e-05 2.6813e-05 3.2048e-03 1.9682e-05 9.2237e-06 -3.3067e-04 -6.3899e-06 -2.1911e-05 3.2362e-03 -3.2216e-06 -4.7300e-06 -3.8609e-04 5.5038e-07 -3.7192e-05 3.2576e-03 6.4919e-05 4.7601e-05 -3.4309e-04 7.0597e-05 6.6598e-05 
5.0644e-03 1.2274e-06 -8.1668e-06 1.3490e-03 -2.7475e-05 1.7570e-04 5.0991e-03 -1.7075e-05 -3.1905e-05 1.4980e-03 1.2374e-06 -2.2729e-05 5.0878e-03 -9.5672e-06 1.2834e-05 1.3884e-03 -4.4004e-05 -2.7797e-05 5.1248e-03 -1.1449e-04 -3.4206e-05 1.3946e-03 -6.1184e-05 5.3372e-08 5.1429e-03 6.9115e-06 4.7236e-05 1.2740e-03 2.0611e-05 -1.1389e-04 
6.2059e-03 5.6987e-05 4.7522e-05 2.6585e-03 1.0131e-04 -9.2484e-06 6.0677e-03 4.3174e-05 -2.4623e-04 2.5641e-03 1.4687e-05 -6.9957e-05 6.0583e-03 1.3985e-05 2.4058e-04 2.1459e-03 1.9850e-06 1.7459e-04 6.2271e-03 -2.9015e-05 -9.7822e-05 2.1674e-03 -2.9252e-05 -2.1082e-04 6.2502e-03 1.1857e-05 3.3777e-05 2.5027e-03 1.5697e-05 9.6943e-05 
6.7236e-03 -3.2352e-05 3.8527e-05 3.2068e-03 6.3316e-05 3.7691e-06 6.7569e-03 3.8547e-05 4.0745e-06 3.1752e-03 2.6629e-05 -4.0019e-05 6.7966e-03 1.0887e-05 -1.3630e-05 2.9843e-03 1.3990e-07 -6.7378e-05 6.7461e-03 -3.5827e-05 -5.4698e-05 2.7430e-03 -7.3769e-05 2.4127e-04 6.7171e-03 -1.0388e-04 3.0078e-05 2.8021e-03 -1.1976e-04 -1.6636e-04 
6.6357e-03 1.8958e-05 -1.5504e-06 3.2601e-03 4.9937e-05 4.1723e-06 6.6172e-03 6.7658e-05 3.7855e-05 3.2947e-03 5.1361e-05 8.2526e-06 6.7275e-03 5.7505e-05 -1.7836e-05 3.1716e-03 2.7493e-05 -6.0786e-05 6.7022e-03 5.3299e-06 -5.0957e-05 2.9000e-03 1.0182e-05 -2.8455e-04 6.6218e-03 -3.8909e-05 2.5891e-05 2.9100e-03 -4.7146e-05 3.1509e-04 
5.8829e-03 -5.5300e-05 2.2583e-04 2.5647e-03 -4.2761e-05 -2.0509e-04 6.1070e-03 -1.2533e-05 2.2102e-05 2.5819e-03 1.0366e-05 2.2690e-04 6.1722e-03 -3.7520e-06 -1.8481e-05 2.7156e-03 -2.7087e-05 -4.9798e-05 6.1331e-03 -1.2218e-07 -4.0977e-05 2.7057e-03 -2.8621e-05 -1.9879e-05 5.8839e-03 -4.0576e-05 -2.1498e-04 2.7092e-03 -3.5522e-05 3.8277e-05 
4.9818e-03 1.0874e-05 6.5081e-05 1.5836e-03 -6.3436e-06 1.9779e-04 4.9954e-03 3.8469e-05 -1.1145e-06 1.7333e-03 4.1079e-05 -1.8982e-05 5.0293e-03 2.8101e-05 -1.7188e-05 1.6884e-03 4.4193e-05 -3.3400e-05 4.9908e-03 4.8762e-05 -4.9264e-05 1.6818e-03 2.1088e-05 -2.4358e-05 4.9681e-03 -2.5737e-05 -3.5241e-05 1.5297e-03 -2.1619e-05 -1.4179e-04 
3.0902e-03 -1.8400e-06 1.4334e-05 -1.5495e-04 -1.9125e-05 3.7958e-06 3.0751e-03 -2.0964e-05 4.4257e-06 -1.5296e-04 -2.8110e-05 -5.9984e-06 3.1047e-03 -9.9395e-06 -3.8507e-06 -1.5799e-04 -1.9754e-05 -9.0161e-06 3.0728e-03 2.0233e-05 -5.0009e-05 -1.5214e-04 -3.7206e-05 -1.9657e-05 3.0830e-03 -6.1737e-05 1.0446e-05 -1.2227e-04 -3.4381e-05 6.1263e-06 
0.0000e+00 0.0000e+00 0.0000e+00 0.0000e+00 0.0000e+00 0.0000e+00 0.0000e+00 0.0000e+00 0.0000e+00 0.0000e+00 0.0000e+00 0.0000e+00 0.0000e+00 0.0000e+00 0.0000e+00 0.0000e+00 0.0000e+00 0.0000e+00 0.0000e+00 0.0000e+00 0.0000e+00 0.0000e+00 0.0000e+00 0.0000e+00 0.0000e+00 0.0000e+00 0.0000e+00 0.0000e+00 0.0000e+00 0.0000e+00 
0.0000e+00 0.0000e+00 0.0000e+00 0.0000e+00 0.0000e+00 0.0000e+00 0.0000e+00 0.0000e+00 0.0000e+00 0.0000e+00 0.0000e+00 0.0000e+00 0.0000e+00 0.0000e+00 0.0000e+00 0.0000e+00 0.0000e+00 0.0000e+00 0.0000e+00 0.0000e+00 0.0000e+00 0.0000e+00 0.0000e+00 0.0000e+00 0.0000e+00 0.0000e+00 0.0000e+00 0.0000e+00 0.0000e+00 0.0000e+00 
2.6829e-03 -8.3463e-05 -3.3243e-06 -4.7555e-04 2.7614e-04 1.6535e-06 3.0648e-03 -1.6982e-05 6.7099e-06 -6.7177e-04 4.3802e-05 -3.7100e-05 3.0365e-03 9.8663e-06 1.1226e-05 -4.1033e-04 -6.3395e-05 6.8856e-06 3.1419e-03 4.4991e-05 -7.6034e-06 -4.3119e-04 3.3949e-06 4.1719e-07 3.2567e-03 -1.5123e-05 1.2675e-06 -6.4446e-04 -5.6051e-05 1.3381e-07 
4.8924e-03 5.5300e-05 -5.4699e-06 1.1008e-03 -2.2285e-05 5.9898e-06 4.5772e-03 -2.1758e-04 9.7010e-06 1.3979e-03 -3.7338e-05 1.3773e-05 4.7255e-03 2.3637e-04 2.3303e-05 1.1720e-03 -9.1357e-05 -2.1855e-05 4.9737e-03 -1.8316e-04 -1.4388e-05 1.0922e-03 -2.3480e-05 1.5936e-05 5.0082e-03 1.1577e-05 1.6316e-06 9.1320e-04 9.1432e-05 -1.1988e-06 
6.0207e-03 8.8968e-05 -2.0397e-06 2.3802e-03 -8.5944e-05 2.6951e-06 5.5974e-03 9.2748e-05 1.2315e-05 2.4217e-03 4.9995e-05 1.7735e-05 5.7019e-03 1.8044e-06 1.5907e-05 1.9438e-03 -1.1289e-05 5.5957e-06 6.0550e-03 -2.4290e-05 2.5327e-06 1.9597e-03 -3.2339e-05 1.5781e-05 5.8217e-03 -4.9362e-05 1.5769e-05 2.1049e-03 2.0806e-04 1.1347e-06 
6.4353e-03 -2.7854e-05 2.0203e-06 3.0979e-03 6.9502e-05 -2.0661e-06 6.3185e-03 3.1148e-04 4.9156e-06 3.0326e-03 8.1377e-05 8.2379e-06 6.4162e-03 -2.4132e-04 7.3019e-06 2.7150e-03 -2.6969e-05 1.2026e-05 6.5498e-03 -1.8022e-05 1.5473e-05 2.2704e-03 3.9159e-05 5.9390e-05 6.4535e-03 -7.6783e-05 1.1589e-05 2.5372e-03 1.5693e-04 4.4724e-06 
5.9438e-03 1.7226e-04 4.5974e-06 2.9059e-03 -1.8720e-04 2.9312e-06 6.4622e-03 7.5480e-05 9.8332e-07 2.9277e-03 3.3227e-04 -2.3827e-06 6.5435e-03 6.8489e-05 1.9167e-06 2.9517e-03 6.4530e-05 1.3211e-05 6.5216e-03 3.9993e-05 1.5493e-05 2.4267e-03 -4.0526e-08 9.1552e-06 6.1959e-03 -2.6296e-04 6.6398e-06 2.3479e-03 -1.2190e-04 3.2619e-06 
5.4497e-03 -1.8755e-05 9.0073e-06 2.0704e-03 1.3720e-04 5.8638e-06 5.9149e-03 -3.2013e-05 -1.7676e-06 2.2574e-03 -6.0513e-06 -5.1220e-06 6.0594e-03 -9.2458e-06 2.2370e-06 2.5791e-03 3.6866e-05 8.9007e-06 5.9999e-03 2.8670e-05 9.0937e-06 2.1352e-03 2.3394e-04 7.3770e-06 5.4482e-03 -7.4691e-05 7.7640e-06 2.1105e-03 -5.1069e-04 4.8231e-06 
4.6323e-03 -2.1755e-04 1.2039e-05 1.0832e-03 2.0181e-04 6.9214e-06 4.8529e-03 -1.1205e-05 -1.3293e-07 1.4382e-03 -2.0155e-04 -4.0698e-06 4.9672e-03 3.1966e-05 -3.6002e-06 1.5816e-03 5.8030e-05 1.2968e-06 4.8954e-03 1.8332e-05 7.3450e-06 1.5498e-03 1.5261e-05 5.6271e-06 4.6045e-03 2.3213e-04 7.1092e-06 1.3086e-03 -2.7373e-05 1.0136e-05 
3.0159e-03 -5.7233e-05 1.3021e-05 -3.3023e-04 -1.3946e-04 6.8433e-06 3.0453e-03 -4.7617e-06 1.8602e-07 -1.7583e-04 -3.6419e-05 -1.4140e-06 3.0771e-03 -2.1598e-05 -7.1958e-06 -2.2493e-04 3.0299e-05 6.6931e-07 3.0400e-03 5.1275e-05 7.6954e-06 -1.5130e-04 -5.2424e-05 -1.6940e-07 3.0261e-03 -1.0516e-05 3.5317e-06 -3.2846e-04 8.4476e-05 1.1372e-05 
0.0000e+00 0.0000e+00 0.0000e+00 0.0000e+00 0.0000e+00 0.0000e+00 0.0000e+00 0.0000e+00 0.0000e+00 0.0000e+00 0.0000e+00 0.0000e+00 0.0000e+00 0.0000e+00 0.0000e+00 0.0000e+00 0.0000e+00 0.0000e+00 0.0000e+00 0.0000e+00 0.0000e+00 0.0000e+00 0.0000e+00 0.0000e+00 0.0000e+00 0.0000e+00 0.0000e+00 0.0000e+00 0.0000e+00 0.0000e+00 
0.0000e+00 0.0000e+00 0.0000e+00 0.0000e+00 0.0000e+00 0.0000e+00 0.0000e+00 0.0000e+00 0.0000e+00 0.0000e+00 0.0000e+00 0.0000e+00 0.0000e+00 0.0000e+00 0.0000e+00 0.0000e+00 0.0000e+00 0.0000e+00 0.0000e+00 0.0000e+00 0.0000e+00 0.0000e+00 0.0000e+00 0.0000e+00 0.0000e+00 0.0000e+00 0.0000e+00 0.0000e+00 0.0000e+00 0.0000e+00 
3.0129e-03 2.4636e-06 3.8999e-05 -4.0962e-04 3.5081e-05 1.1694e-05 2.9591e-03 2.3209e-06 -3.9451e-06 -3.8339e-04 4.2474e-05 -3.5604e-05 3.0020e-03 2.6381e-05 -8.9820e-06 -4.1627e-04 -3.2046e-05 2.8995e-05 3.0394e-03 -5.5542e-06 6.7943e-06 -4.6866e-04 1.6961e-05 3.2715e-05 3.0660e-03 5.6307e-05 -4.6347e-05 -4.1112e-04 7.7515e-05 -5.8952e-05 
4.6206e-03 7.6616e-06 7.5401e-06 1.0200e-03 -2.9004e-05 -1.9375e-04 4.6114e-03 -2.0568e-05 1.3966e-05 1.1971e-03 -7.4467e-06 2.9924e-05 4.6646e-03 -1.9123e-05 4.2311e-06 1.0533e-03 -4.8842e-05 4.4390e-05 4.7043e-03 -1.1602e-04 4.2110e-05 1.0545e-03 -5.4599e-05 -3.1914e-06 4.7293e-03 1.5836e-05 -5.2846e-05 9.8075e-04 2.9367e-05 1.1094e-04 
5.5959e-03 6.1716e-05 -5.2914e-05 2.1690e-03 8.6220e-05 -1.0842e-05 5.4564e-03 3.6027e-05 2.3462e-04 2.0923e-03 1.2744e-05 7.5809e-05 5.4714e-03 -4.6583e-06 -2.2130e-04 1.8890e-03 2.0001e-05 6.4175e-05 5.6504e-03 -2.2917e-05 1.0617e-04 1.9060e-03 -3.8556e-05 -1.2005e-05 5.6714e-03 2.3446e-05 -4.1408e-05 2.0367e-03 1.9647e-05 -1.0537e-04 
6.0325e-03 -2.5395e-05 -5.4626e-05 2.6244e-03 6.4673e-05 -2.3814e-05 6.0873e-03 3.0796e-05 -1.0687e-05 2.6105e-03 1.8384e-05 4.4979e-05 6.1354e-03 -8.3249e-07 3.2862e-05 2.4419e-03 -1.1434e-06 8.6988e-05 6.0893e-03 -2.7257e-05 7.0095e-05 2.4481e-03 -6.4039e-05 1.7679e-05 6.0538e-03 -9.1116e-05 -3.4312e-05 2.4947e-03 -1.1270e-04 -1.0189e-04 
5.9648e-03 2.3692e-05 -2.0192e-05 2.6591e-03 5.2995e-05 -2.8478e-05 5.9640e-03 5.9287e-05 -4.2119e-05 2.7082e-03 3.9191e-05 -4.8128e-06 6.0846e-03 4.4943e-05 2.7912e-05 2.6028e-03 2.2809e-05 7.3690e-05 6.0531e-03 6.5028e-06 6.7199e-05 2.3229e-03 1.6918e-05 2.8719e-04 5.9691e-03 -3.1348e-05 -2.5955e-05 2.3129e-03 -3.8348e-05 -3.2802e-04 
5.3167e-03 -4.0518e-05 -2.3809e-04 2.0234e-03 -3.3887e-05 1.8701e-04 5.5398e-03 -1.5319e-05 -3.6580e-05 2.0575e-03 4.2918e-07 -2.3952e-04 5.6287e-03 -1.3109e-05 6.6558e-06 2.2111e-03 -3.5173e-05 4.5854e-05 5.5804e-03 -9.5581e-06 4.7838e-05 2.1907e-03 -3.3584e-05 2.4789e-05 5.3256e-03 -4.0981e-05 2.2197e-04 2.1820e-03 -2.7430e-05 -4.0443e-05 
4.5971e-03 1.3929e-05 -6.1756e-05 1.1859e-03 -4.9301e-06 -2.0468e-04 4.6100e-03 3.3734e-05 -1.3232e-05 1.3569e-03 3.4038e-05 -1.9858e-06 4.6542e-03 1.4345e-05 -4.9504e-06 1.3233e-03 3.5673e-05 2.2062e-05 4.6108e-03 5.1941e-05 4.6280e-05 1.3117e-03 1.9182e-05 2.5440e-05 4.5963e-03 -2.2788e-05 4.2329e-05 1.1535e-03 -1.4460e-05 1.4110e-04 
2.9578e-03 -1.8578e-06 -2.2944e-05 -3.1252e-04 -1.9048e-05 -1.3830e-05 2.9430e-03 -2.5443e-05 -1.6885e-05 -3.0195e-04 -3.4777e-05 -6.8458e-06 2.9698e-03 -2.3342e-06 -8.7089e-06 -2.8377e-04 -1.5115e-05 1.7825e-06 2.9343e-03 1.3918e-05 4.3609e-05 -2.9802e-04 -3.5060e-05 1.7197e-05 2.9588e-03 -6.4460e-05 -5.2909e-06 -2.7061e-04 -2.9557e-05 -8.5233e-06 
0.0000e+00 0.0000e+00 0.0000e+00 0.0000e+00 0.0000e+00 0.0000e+00 0.0000e+00 0.0000e+00 0.0000e+00 0.0000e+00 0.0000e+00 0.0000e+00 0.0000e+00 0.0000e+00 0.0000e+00 0.0000e+00 0.0000e+00 0.0000e+00 0.0000e+00 0.0000e+00 0.0000e+00 0.0000e+00 0.0000e+00 0.0000e+00 0.0000e+00 0.0000e+00 0.0000e+00 0.0000e+00 0.0000e+00 0.0000e+00 
0.0000e+00 0.0000e+00 0.0000e+00 0.0000e+00 0.0000e+00 0.0000e+00 0.0000e+00 0.0000e+00 0.0000e+00 0.0000e+00 0.0000e+00 0.0000e+00 0.0000e+00 0.0000e+00 0.0000e+00 0.0000e+00 0.0000e+00 0.0000e+00 0.0000e+00 0.0000e+00 0.0000e+00 0.0000e+00 0.0000e+00 0.0000e+00 0.0000e+00 0.0000e+00 0.0000e+00 0.0000e+00 0.0000e+00 0.0000e+00 
2.7885e-03 2.5022e-05 -5.5623e-06 -6.5014e-04 9.5186e-06 1.2400e-05 2.7674e-03 1.1063e-05 2.3153e-05 -6.3434e-04 4.8308e-05 2.4982e-05 2.7895e-03 7.8827e-06 8.8412e-06 -5.8875e-04 5.2492e-05 -6.0221e-06 2.7524e-03 1.8432e-05 -3.4267e-05 -6.0443e-04 4.8322e-06 -2.4797e-05 2.7794e-03 3.7683e-05 1.1031e-05 -6.0921e-04 3.8445e-05 5.4916e-06 
4.0183e-03 -2.6587e-05 2.9900e-05 5.9399e-04 -3.0991e-05 4.6610e-05 4.0537e-03 -3.8459e-05 3.6378e-05 6.2754e-04 -1.3653e-05 -1.0205e-05 4.0348e-03 -2.5716e-05 -1.9438e-05 6.1573e-04 -3.2090e-05 3.3016e-05 4.0508e-03 -3.2167e-05 -9.0113e-06 6.3449e-04 -5.9032e-05 -2.4595e-05 4.1011e-03 -1.7701e-05 -3.2797e-05 6.2566e-04 5.1257e-06 -5.2345e-05 
4.7200e-03 3.1656e-05 -4.5078e-05 1.2660e-03 5.7213e-05 3.7413e-05 4.7529e-03 2.6071e-05 3.1684e-05 1.2830e-03 1.8356e-06 4.1014e-05 4.7715e-03 2.0443e-05 4.2340e-05 1.2846e-03 2.1541e-05 3.9744e-05 4.7270e-03 -1.7812e-05 8.7137e-05 1.3025e-03 7.4763e-06 1.6635e-05 4.8212e-03 2.3422e-05 -7.4560e-05 1.3109e-03 2.0282e-05 -9.3517e-05 
5.0651e-03 -2.3008e-05 -2.0446e-05 1.6031e-03 1.7024e-05 -2.2601e-05 5.0529e-03 -4.2439e-07 2.5363e-05 1.6344e-03 -2.3071e-05 1.5784e-05 5.0813e-03 -2.9844e-07 3.3249e-05 1.5786e-03 -1.7221e-05 5.9719e-05 5.0628e-03 -3.9768e-05 7.1320e-05 1.6606e-03 -2.1350e-05 4.5319e-05 5.1014e-03 -7.2486e-05 -6.5712e-05 1.5944e-03 -8.5539e-05 -6.9291e-05 
5.0422e-03 3.0308e-05 -4.1654e-05 1.6158e-03 4.3691e-05 -7.7181e-05 4.9709e-03 3.8960e-05 -3.3006e-05 1.6462e-03 3.5716e-05 2.1113e-05 5.0563e-03 2.3055e-05 1.0993e-05 1.6526e-03 9.6655e-06 -4.0809e-06 5.0169e-03 1.6532e-05 6.8138e-05 1.6388e-03 4.9162e-06 4.5172e-05 5.0120e-03 -9.7981e-06 1.9994e-05 1.6686e-03 3.5318e-06 3.1218e-05 
4.7105e-03 -3.5970e-05 -2.5671e-05 1.3274e-03 -3.9074e-05 -4.9290e-05 4.6886e-03 -8.2674e-06 -5.3974e-06 1.3589e-03 -9.5753e-06 1.0846e-05 4.7152e-03 -1.7800e-05 8.4476e-06 1.3137e-03 -3.3910e-05 4.4813e-05 4.6924e-03 -3.6676e-05 7.6223e-05 1.3602e-03 -4.2066e-05 4.1024e-05 4.7160e-03 -3.4877e-05 -2.8115e-05 1.3325e-03 -2.3730e-05 -3.0757e-05 
4.0109e-03 1.5002e-05 -1.2602e-05 6.6121e-04 2.5614e-05 -2.4518e-05 3.9691e-03 3.2102e-05 -1.6998e-05 6.7624e-04 2.7639e-05 6.9855e-07 4.0056e-03 1.5802e-05 1.3013e-05 6.8388e-04 1.8043e-05 1.3394e-05 3.9692e-03 4.9599e-05 5.4100e-05 6.7525e-04 1.5355e-05 3.2997e-05 4.0060e-03 -5.7985e-06 -5.7298e-06 6.8913e-04 7.2093e-06 -6.7308e-07 
2.7490e-03 -8.8599e-06 -7.5407e-06 -5.8916e-04 -4.9518e-05 -2.1245e-05 2.7234e-03 -2.0737e-05 -8.1129e-06 -5.6823e-04 -2.7936e-05 3.5134e-06 2.7337e-03 -8.9689e-06 1.5018e-05 -5.6175e-04 -2.5143e-05 1.0137e-05 2.7110e-03 -1.6209e-05 8.5877e-06 -5.7631e-04 -1.5409e-05 2.6564e-05 2.7418e-03 -4.0147e-05 1.0767e-05 -5.5685e-04 -3.0843e-05 3.7831e-06 
0.0000e+00 0.0000e+00 0.0000e+00 0.0000e+00 0.0000e+00 0.0000e+00 0.0000e+00 0.0000e+00 0.0000e+00 0.0000e+00 0.0000e+00 0.0000e+00 0.0000e+00 0.0000e+00 0.0000e+00 0.0000e+00 0.0000e+00 0.0000e+00 0.0000e+00 0.0000e+00 0.0000e+00 0.0000e+00 0.0000e+00 0.0000e+00 0.0000e+00 0.0000e+00 0.0000e+00 0.0000e+00 0.0000e+00 0.0000e+00 
0.0000e+00 0.0000e+00 0.0000e+00 0.0000e+00 0.0000e+00 0.0000e+00 0.0000e+00 0.0000e+00 0.0000e+00 0.0000e+00 0.0000e+00 0.0000e+00 0.0000e+00 0.0000e+00 0.0000e+00 0.0000e+00 0.0000e+00 0.0000e+00 0.0000e+00 0.0000e+00 0.0000e+00 0.0000e+00 0.0000e+00 0.0000e+00 0.0000e+00 0.0000e+00 0.0000e+00 0.0000e+00 0.0000e+00 0.0000e+00 
2.2673e-03 2.1002e-05 9.4464e-06 -1.1566e-03 1.5554e-05 1.1182e-05 2.2746e-03 1.9819e-05 -1.1610e-06 -1.1368e-03 3.4384e-05 -1.4573e-05 2.2452e-03 1.0934e-05 2.5619e-06 -1.0844e-03 6.2664e-05 -2.3727e-05 2.1967e-03 2.8894e-05 4.1504e-06 -1.0795e-03 -6.6954e-06 1.0150e-05 2.2429e-03 3.4762e-05 -9.7649e-06 -1.1353e-03 2.5454e-05 9.9007e-08 
2.7855e-03 -2.4702e-05 7.1452e-06 -6.3056e-04 -3.0816e-05 8.1773e-06 2.7988e-03 -3.4472e-05 8.7044e-06 -6.1058e-04 -3.4146e-05 -1.6959e-05 2.7887e-03 -1.5242e-05 9.8503e-06 -5.6873e-04 -2.9555e-05 -3.6972e-05 2.7508e-03 -1.8899e-05 -1.5303e-06 -5.6889e-04 -1.4238e-05 2.3411e-05 2.7997e-03 -3.4351e-05 -3.6417e-06 -6.0510e-04 -1.9061e-05 -1.5007e-05 
3.0596e-03 2.9312e-05 -1.2347e-05 -3.7582e-04 3.3116e-05 -1.5583e-05 3.0596e-03 2.1875e-05 1.3981e-05 -3.3805e-04 1.7653e-05 -8.8872e-06 3.0761e-03 3.3091e-05 7.9432e-06 -3.3308e-04 2.7628e-05 -4.4129e-06 3.0499e-03 2.0383e-05 1.2275e-05 -3.2982e-04 1.5116e-05 3.4037e-06 3.0848e-03 1.0648e-05 1.1352e-06 -3.3289e-04 2.4272e-05 -1.4191e-05 
3.1734e-03 -3.1199e-05 9.2383e-06 -2.4931e-04 -2.1742e-05 -1.1061e-05 3.1700e-03 -1.6492e-05 -1.8102e-06 -2.2294e-04 -1.9032e-05 -6.6923e-06 3.1943e-03 -2.0942e-05 1.0221e-05 -2.2604e-04 -3.1191e-05 -9.5828e-06 3.1670e-03 -3.0504e-05 1.1085e-05 -2.2520e-04 -2.5000e-05 -7.5933e-06 3.1971e-03 -3.4189e-05 -1.7861e-06 -2.1904e-04 -3.6270e-05 -8.8190e-06 
3.1693e-03 2.8810e-05 1.4157e-05 -2.3867e-04 3.4073e-05 -1.1439e-06 3.1600e-03 3.0863e-05 -2.2531e-08 -2.2125e-04 2.9731e-05 -1.3083e-05 3.1752e-03 2.1961e-05 1.0343e-05 -2.2541e-04 1.3249e-05 -6.5973e-06 3.1667e-03 1.6893e-05 -6.2846e-07 -2.2327e-04 1.9779e-05 -1.6031e-05 3.1748e-03 9.8120e-06 3.0899e-06 -2.1632e-04 1.1154e-05 -6.3756e-06 
3.0504e-03 -2.4415e-05 -3.2536e-06 -3.4573e-04 -2.0756e-05 -1.4355e-05 3.0296e-03 -2.1330e-05 5.8234e-06 -3.2374e-04 -2.2363e-05 -1.0817e-05 3.0450e-03 -2.1767e-05 1.0081e-06 -3.2682e-04 -2.1608e-05 8.1959e-07 3.0336e-03 -2.6184e-05 5.9215e-06 -3.3713e-04 -3.8872e-05 -1.5265e-05 3.0485e-03 -4.1591e-05 9.9384e-06 -3.1292e-04 -3.4180e-05 -2.9578e-06 