<?xml version="1.0"?>
<!-- openLBMflow v1.0.1, www.lbmflow.com -->
<VTKFile type="ImageData" version="0.1" byte_order="LittleEndian">
  <ImageData WholeExtent="0 9 0 9 0 9" Origin="0 0 0" Spacing="1 1 1">
  <Piece Extent="0 9 0 9 0 9">
    <PointData Scalars="scalars">
      <DataArray type="Float32" Name="Velocity" NumberOfComponents="3" format="ascii">
0.0000e+00 0.0000e+00 0.0000e+00 0.0000e+00 0.0000e+00 0.0000e+00 0.0000e+00 0.0000e+00 0.0000e+00 0.0000e+00 0.0000e+00 0.0000e+00 0.0000e+00 0.0000e+00 0.0000e+00 0.0000e+00 0.0000e+00 0.0000e+00 0.0000e+00 0.0000e+00 0.0000e+00 0.0000e+00 0.0000e+00 0.0000e+00 0.0000e+00 0.0000e+00 0.0000e+00 0.0000e+00 0.0000e+00 0.0000e+00 
0.0000e+00 0.0000e+00 0.0000e+00 0.0000e+00 0.0000e+00 0.0000e+00 0.0000e+00 0.0000e+00 0.0000e+00 0.0000e+00 0.0000e+00 0.0000e+00 0.0000e+00 0.0000e+00 0.0000e+00 0.0000e+00 0.0000e+00 0.0000e+00 0.0000e+00 0.0000e+00 0.0000e+00 0.0000e+00 0.0000e+00 0.0000e+00 0.0000e+00 0.0000e+00 0.0000e+00 0.0000e+00 0.0000e+00 0.0000e+00 
0.0000e+00 0.0000e+00 0.0000e+00 0.0000e+00 0.0000e+00 0.0000e+00 0.0000e+00 0.0000e+00 0.0000e+00 0.0000e+00 0.0000e+00 0.0000e+00 0.0000e+00 0.0000e+00 0.0000e+00 0.0000e+00 0.0000e+00 0.0000e+00 0.0000e+00 0.0000e+00 0.0000e+00 0.0000e+00 0.0000e+00 0.0000e+00 0.0000e+00 0.0000e+00 0.0000e+00 0.0000e+00 0.0000e+00 0.0000e+00 
0.0000e+00 0.0000e+00 0.0000e+00 0.0000e+00 0.0000e+00 0.0000e+00 0.0000e+00 0.0000e+00 0.0000e+00 0.0000e+00 0.0000e+00 0.0000e+00 0.0000e+00 0.0000e+00 0.0000e+00 0.0000e+00 0.0000e+00 0.0000e+00 0.0000e+00 0.0000e+00 0.0000e+00 0.0000e+00 0.0000e+00 0.0000e+00 0.0000e+00 0.0000e+00 0.0000e+00 0.0000e+00 0.0000e+00 0.0000e+00 
0.0000e+00 0.0000e+00 0.0000e+00 0.0000e+00 0.0000e+00 0.0000e+00 0.0000e+00 0.0000e+00 0.0000e+00 0.0000e+00 0.0000e+00 0.0000e+00 0.0000e+00 0.0000e+00 0.0000e+00 0.0000e+00 0.0000e+00 0.0000e+00 0.0000e+00 0.0000e+00 0.0000e+00 0.0000e+00 0.0000e+00 0.0000e+00 0.0000e+00 0.0000e+00 0.0000e+00 0.0000e+00 0.0000e+00 0.0000e+00 
0.0000e+00 0.0000e+00 0.0000e+00 0.0000e+00 0.0000e+00 0.0000e+00 0.0000e+00 0.0000e+00 0.0000e+00 0.0000e+00 0.0000e+00 0.0000e+00 0.0000e+00 0.0000e+00 0.0000e+00 0.0000e+00 0.0000e+00 0.0000e+00 0.0000e+00 0.0000e+00 0.0000e+00 0.0000e+00 0.0000e+00 0.0000e+00 0.0000e+00 0.0000e+00 0.0000e+00 0.0000e+00 0.0000e+00 0.0000e+00 
0.0000e+00 0.0000e+00 0.0000e+00 0.0000e+00 0.0000e+00 0.0000e+00 0.0000e+00 0.0000e+00 0.0000e+00 0.0000e+00 0.0000e+00 0.0000e+00 0.0000e+00 0.0000e+00 0.0000e+00 0.0000e+00 0.0000e+00 0.0000e+00 0.0000e+00 0.0000e+00 0.0000e+00 0.0000e+00 0.0000e+00 0.0000e+00 0.0000e+00 0.0000e+00 0.0000e+00 0.0000e+00 0.0000e+00 0.0000e+00 
0.0000e+00 0.0000e+00 0.0000e+00 0.0000e+00 0.0000e+00 0.0000e+00 0.0000e+00 0.0000e+00 0.0000e+00 0.0000e+00 0.0000e+00 0.0000e+00 0.0000e+00 0.0000e+00 0.0000e+00 0.0000e+00 0.0000e+00 0.0000e+00 0.0000e+00 0.0000e+00 0.0000e+00 0.0000e+00 0.0000e+00 0.0000e+00 0.0000e+00 0.0000e+00 0.0000e+00 0.0000e+00 0.0000e+00 0.0000e+00 
0.0000e+00 0.0000e+00 0.0000e+00 0.0000e+00 0.0000e+00 0.0000e+00 0.0000e+00 0.0000e+00 0.0000e+00 0.0000e+00 0.0000e+00 0.0000e+00 0.0000e+00 0.0000e+00 0.0000e+00 0.0000e+00 0.0000e+00 0.0000e+00 0.0000e+00 0.0000e+00 0.0000e+00 0.0000e+00 0.0000e+00 0.0000e+00 0.0000e+00 0.0000e+00 0.0000e+00 0.0000e+00 0.0000e+00 0.0000e+00 
0.0000e+00 0.0000e+00 0.0000e+00 0.0000e+00 0.0000e+00 0.0000e+00 0.0000e+00 0.0000e+00 0.0000e+00 0.0000e+00 0.0000e+00 0.0000e+00 0.0000e+00 0.0000e+00 0.0000e+00 0.0000e+00 0.0000e+00 0.0000e+00 0.0000e+00 0.0000e+00 0.0000e+00 0.0000e+00 0.0000e+00 0.0000e+00 0.0000e+00 0.0000e+00 0.0000e+00 0.0000e+00 0.0000e+00 0.0000e+00 
0.0000e+00 0.0000e+00 0.0000e+00 0.0000e+00 0.0000e+00 0.0000e+00 0.0000e+00 0.0000e+00 0.0000e+00 0.0000e+00 0.0000e+00 0.0000e+00 0.0000e+00 0.0000e+00 0.0000e+00 0.0000e+00 0.0000e+00 0.0000e+00 0.0000e+00 0.0000e+00 0.0000e+00 0.0000e+00 0.0000e+00 0.0000e+00 0.0000e+00 0.0000e+00 0.0000e+00 0.0000e+00 0.0000e+00 0.0000e+00 
2.5027e-03 1.0893e-04 -2.5916e-05 -1.1717e-03 2.3379e-04 5.9028e-05 2.6242e-03 -1.7184e-05 2.7120e-05 -1.4347e-03 -2.1564e-04 -2.8839e-05 2.7295e-03 5.1389e-05 -1.4624e-05 -1.3807e-03 -2.6288e-06 3.0274e-06 2.5938e-03 -1.9876e-04 1.5397e-05 -1.2132e-03 2.2549e-04 3.1023e-05 2.5330e-03 2.0699e-04 8.1045e-06 -1.1611e-03 7.4257e-06 -1.8278e-06 
3.1350e-03 -9.3058e-05 -6.7793e-05 -2.0276e-04 -2.1369e-04 4.7559e-05 2.9690e-03 2.3076e-05 1.9883e-05 -4.8974e-04 -4.3730e-06 -2.4751e-05 3.3159e-03 -8.8618e-06 3.7547e-05 -8.6976e-04 -2.7222e-05 6.8639e-06 3.1928e-03 -1.8675e-05 -1.1342e-04 -3.0346e-04 -2.7905e-05 3.5094e-05 2.8732e-03 -5.7891e-05 1.8240e-05 -2.2747e-04 1.6441e-04 4.4032e-06 
2.9241e-03 2.1165e-05 -9.2538e-06 4.3898e-04 -6.3337e-05 -3.5646e-05 3.4316e-03 6.8170e-06 6.7731e-05 -1.2353e-04 2.8821e-04 1.1026e-05 3.5512e-03 -3.0611e-05 5.4264e-05 -2.8769e-04 -2.9960e-04 2.1915e-05 6.2009e-03 1.0324e-04 1.6166e-05 -3.9355e-04 -1.1070e-04 5.0344e-05 3.4702e-03 -8.5234e-05 1.0022e-05 1.6167e-04 1.8936e-04 3.6604e-05 
3.5037e-03 2.9178e-05 -4.8986e-05 8.5391e-05 2.8563e-04 -7.2337e-05 3.5039e-03 1.3221e-05 -4.8514e-05 3.7215e-04 8.6844e-05 -5.8016e-05 3.3180e-03 9.5678e-05 1.1466e-04 2.5093e-03 -8.7774e-05 6.5196e-06 3.7897e-03 -9.9931e-05 2.7173e-05 -4.3613e-04 -1.2551e-04 5.0549e-05 3.7076e-03 -1.3062e-05 -2.1621e-05 -8.1649e-05 -2.3976e-04 1.1413e-04 
3.5727e-03 -3.3069e-07 2.7346e-05 -1.5235e-04 -3.5611e-06 -1.3344e-05 3.5959e-03 1.0834e-04 -6.9754e-05 9.0358e-05 -4.4809e-05 -3.3398e-05 3.6323e-03 -1.0494e-04 4.8372e-05 -1.3193e-05 1.3377e-04 5.3320e-05 3.6990e-03 2.0337e-05 4.1634e-05 -3.0313e-04 -5.6802e-05 -6.0455e-06 3.7539e-03 -1.3603e-06 -2.3465e-05 -3.2009e-04 -2.9519e-05 9.9592e-05 
6.0677e-03 8.0841e-05 4.4518e-05 -3.0824e-04 -3.8751e-05 2.8907e-05 3.4983e-03 -1.2225e-04 -4.6347e-05 -1.0053e-04 -1.4049e-05 -1.4883e-05 3.3786e-03 6.5487e-05 -7.6587e-05 2.4584e-06 1.0760e-04 1.8551e-05 3.4412e-03 2.4536e-05 7.8997e-05 -3.0083e-04 2.9570e-06 1.6198e-05 3.4822e-03 -2.9273e-05 -4.4280e-05 -3.8223e-04 -1.3422e-04 -7.7295e-06 
3.2867e-03 -9.7563e-06 4.0981e-05 -6.8116e-04 -2.5846e-05 5.7702e-05 3.1862e-03 1.7293e-05 -5.3897e-05 -5.0739e-04 1.9851e-06 5.5935e-06 3.0592e-03 6.7432e-05 -2.9411e-05 -5.1071e-04 3.1890e-05 1.2388e-05 3.0497e-03 -3.9285e-05 5.4494e-05 -5.5740e-04 4.7702e-05 7.2915e-05 3.0789e-03 5.5345e-05 1.0720e-06 -6.9779e-04 1.4541e-05 -2.7385e-05 
2.5408e-03 -8.4049e-05 1.6162e-05 -1.2719e-03 -1.6670e-04 5.0037e-05 2.5381e-03 -1.1029e-05 7.3910e-06 -1.1673e-03 -1.0863e-04 -5.8575e-06 2.4404e-03 -1.8990e-05 -3.5879e-06 -1.2717e-03 5.2829e-05 -1.7038e-05 2.5358e-03 5.5784e-05 -3.2382e-06 -1.1992e-03 -3.0602e-05 3.7401e-05 2.4970e-03 -4.4121e-05 4.1155e-05 -1.3288e-03 9.5303e-05 -1.4740e-06 
0.0000e+00 0.0000e+00 0.0000e+00 0.0000e+00 0.0000e+00 0.0000e+00 0.0000e+00 0.0000e+00 0.0000e+00 0.0000e+00 0.0000e+00 0.0000e+00 0.0000e+00 0.0000e+00 0.0000e+00 0.0000e+00 0.0000e+00 0.0000e+00 0.0000e+00 0.0000e+00 0.0000e+00 0.0000e+00 0.0000e+00 0.0000e+00 0.0000e+00 0.0000e+00 0.0000e+00 0.0000e+00 0.0000e+00 0.0000e+00 
0.0000e+00 0.0000e+00 0.0000e+00 0.0000e+00 0.0000e+00 0.0000e+00 0.0000e+00 0.0000e+00 0.0000e+00 0.0000e+00 0.0000e+00 0.0000e+00 0.0000e+00 0.0000e+00 0.0000e+00 0.0000e+00 0.0000e+00 0.0000e+00 0.0000e+00 0.0000e+00 0.0000e+00 0.0000e+00 0.0000e+00 0.0000e+00 0.0000e+00 0.0000e+00 0.0000e+00 0.0000e+00 0.0000e+00 0.0000e+00 
3.0782e-03 3.7061e-05 -1.5816e-05 -7.6683e-04 3.6981e-05 -5.3054e-08 3.1773e-03 6.7516e-06 -5.8641e-05 -8.1568e-04 -4.4707e-05 1.9110e-05 3.2030e-03 1.1530e-05 3.5844e-05 -8.7119e-04 5.2300e-05 -8.1467e-06 3.2151e-03 5.4031e-05 -2.9643e-06 -8.6075e-04 4.8582e-05 -4.3259e-06 3.1606e-03 3.0033e-06 -1.3209e-05 -7.9265e-04 7.1641e-05 -2.3512e-05 
4.4911e-03 -8.0830e-06 -4.5298e-05 7.3640e-04 -2.1449e-05 -1.0197e-04 4.5725e-03 -1.5904e-05 1.4603e-05 6.8052e-04 -3.0922e-05 1.1580e-04 4.5902e-03 -5.3661e-05 -5.2097e-05 4.2001e-04 7.6010e-06 -8.0967e-05 4.5438e-03 -3.8829e-05 9.6552e-05 5.8561e-04 -5.1715e-05 -7.2108e-05 4.5240e-03 -2.1036e-05 -8.1761e-05 7.0425e-04 -3.1167e-06 7.6693e-05 
5.2398e-03 1.7931e-05 3.3996e-05 1.6467e-03 5.0290e-05 2.5357e-04 5.3688e-03 7.0868e-05 -8.7016e-05 1.3792e-03 7.8106e-06 -1.4490e-05 5.4017e-03 -2.4877e-05 2.4249e-05 1.2284e-03 -1.9894e-05 1.2452e-05 5.3819e-03 8.6840e-06 1.7494e-05 1.2150e-03 2.0878e-05 1.0883e-06 5.3150e-03 -2.4285e-06 1.9015e-05 1.5482e-03 2.1949e-05 -2.5852e-04 
5.6285e-03 -7.9649e-05 -2.3328e-06 1.7898e-03 1.5677e-05 -2.0455e-05 5.6913e-03 7.7306e-05 -1.7618e-05 1.9536e-03 5.6123e-05 -1.7920e-04 5.7822e-03 4.1768e-05 -6.9186e-05 1.8503e-03 3.0602e-05 2.1503e-04 5.7849e-03 -4.8237e-05 2.6328e-05 1.5642e-03 -5.5963e-05 3.1558e-05 5.6918e-03 -4.6675e-05 3.6153e-05 1.6584e-03 -1.1231e-04 -7.1501e-05 
5.6658e-03 -2.6432e-07 -1.1909e-05 1.8138e-03 3.7873e-05 -2.9169e-05 5.7556e-03 1.1793e-04 -1.1315e-04 1.8255e-03 1.2853e-04 -6.4747e-05 5.8192e-03 4.3988e-05 -5.2544e-05 1.8282e-03 2.4245e-05 2.7802e-05 5.8147e-03 -3.2082e-05 8.4719e-05 1.7218e-03 -4.8442e-05 9.7496e-05 5.7118e-03 -3.2735e-05 2.8418e-05 1.6637e-03 -2.4223e-05 -5.5605e-05 
5.3016e-03 -2.3643e-05 -1.3479e-05 1.5354e-03 -4.1073e-05 -2.2594e-05 5.4071e-03 -5.9639e-05 -8.5743e-05 1.5915e-03 3.8215e-06 -1.1248e-04 5.3888e-03 3.9458e-05 5.3765e-06 1.6357e-03 2.2211e-05 4.2161e-05 5.3718e-03 -2.4438e-05 2.1201e-05 1.5380e-03 -5.4691e-05 7.3745e-05 5.2980e-03 -3.9198e-05 2.8512e-05 1.4216e-03 -4.2687e-05 -8.2259e-06 
4.4973e-03 1.3531e-05 1.7136e-06 7.3072e-04 -3.6738e-06 -1.8627e-05 4.5975e-03 -4.1881e-05 -3.1929e-05 8.1248e-04 -7.6167e-06 -8.7964e-05 4.5476e-03 4.8101e-05 -3.7433e-05 8.0811e-04 5.8571e-05 -9.0977e-06 4.4833e-03 5.6612e-05 3.7153e-05 7.7097e-04 8.3690e-06 2.1133e-05 4.4774e-03 1.8080e-05 -1.0153e-05 6.6516e-04 2.0798e-05 6.7613e-05 
3.0605e-03 -4.4045e-05 2.4275e-05 -6.6201e-04 -2.9658e-05 2.0342e-05 3.0823e-03 -2.5154e-05 -1.5542e-06 -6.4805e-04 -5.5362e-05 -3.9177e-05 3.0486e-03 -1.3731e-05 -4.3641e-05 -6.9659e-04 1.1301e-05 2.0215e-05 3.0032e-03 3.6392e-05 3.4805e-05 -6.9398e-04 -1.0364e-05 -2.9011e-05 3.0511e-03 -3.8368e-05 -5.0301e-05 -6.9770e-04 -3.9939e-05 3.7377e-06 
0.0000e+00 0.0000e+00 0.0000e+00 0.0000e+00 0.0000e+00 0.0000e+00 0.0000e+00 0.0000e+00 0.0000e+00 0.0000e+00 0.0000e+00 0.0000e+00 0.0000e+00 0.0000e+00 0.0000e+00 0.0000e+00 0.0000e+00 0.0000e+00 0.0000e+00 0.0000e+00 0.0000e+00 0.0000e+00 0.0000e+00 0.0000e+00 0.0000e+00 0.0000e+00 0.0000e+00 0.0000e+00 0.0000e+00 0.0000e+00 
0.0000e+00 0.0000e+00 0.0000e+00 0.0000e+00 0.0000e+00 0.0000e+00 0.0000e+00 0.0000e+00 0.0000e+00 0.0000e+00 0.0000e+00 0.0000e+00 0.0000e+00 0.0000e+00 0.0000e+00 0.0000e+00 0.0000e+00 0.0000e+00 0.0000e+00 0.0000e+00 0.0000e+00 0.0000e+00 0.0000e+00 0.0000e+00 0.0000e+00 0.0000e+00 0.0000e+00 0.0000e+00 0.0000e+00 0.0000e+00 
3.3100e-03 1.9460e-05 -2.0201e-06 -5.8898e-04 2.6545e-05 1.7495e-05 3.3789e-03 2.9896e-05 9.3237e-06 -6.1110e-04 2.3687e-06 -3.1997e-06 3.4041e-03 2.0118e-05 8.8645e-06 -7.1794e-04 -2.5897e-05 2.3361e-05 3.4399e-03 5.5741e-05 -1.4170e-05 -7.3310e-04 9.6490e-05 2.8822e-06 3.3929e-03 -2.6391e-05 2.2729e-05 -6.3660e-04 7.9681e-05 -1.1540e-05 
5.0840e-03 -5.2969e-08 -2.7811e-05 1.1676e-03 2.0512e-05 4.2886e-05 5.1713e-03 -6.6055e-05 4.4526e-05 1.1234e-03 -4.7049e-05 6.7579e-06 5.1903e-03 -9.4106e-06 1.6536e-05 9.9032e-04 5.3270e-06 -1.2629e-05 5.1861e-03 -2.7889e-05 -1.7177e-05 9.1070e-04 -4.0389e-05 1.8319e-05 5.1439e-03 -1.4010e-05 8.0482e-06 1.1016e-03 -4.2508e-05 -2.3145e-05 
6.2039e-03 2.2500e-05 -6.7265e-05 2.1613e-03 3.7448e-06 5.6110e-06 6.1727e-03 3.0827e-05 4.3178e-05 2.2022e-03 7.4248e-05 5.0444e-05 6.2668e-03 2.9964e-05 3.1489e-05 1.9948e-03 8.4955e-05 3.5562e-05 6.2174e-03 1.0811e-05 3.9399e-05 2.0105e-03 -1.9632e-05 5.0616e-05 6.1411e-03 2.9644e-05 -7.9840e-07 2.1362e-03 1.5236e-06 -9.8187e-05 
6.6608e-03 -7.2077e-05 -6.5389e-05 2.7167e-03 -5.1076e-05 -1.0116e-04 6.7677e-03 5.5183e-05 -6.5199e-05 2.6515e-03 5.1739e-05 3.0667e-05 6.6856e-03 -2.0539e-05 4.9528e-05 2.6467e-03 1.1818e-05 9.0101e-05 6.7487e-03 1.1972e-05 9.2300e-05 2.6044e-03 -5.6149e-05 5.7722e-05 6.6914e-03 -7.1508e-05 4.1224e-05 2.6353e-03 -6.1248e-05 -3.9528e-06 
6.7163e-03 1.7496e-05 2.7648e-05 2.7563e-03 7.8752e-05 -5.1473e-05 6.7727e-03 7.6267e-05 -8.8134e-05 2.6889e-03 4.7354e-05 -7.2712e-05 6.7675e-03 9.7752e-05 -6.0273e-05 2.7647e-03 3.2711e-05 -9.2588e-06 6.7807e-03 -2.8192e-05 1.0753e-04 2.6675e-03 -4.7467e-05 5.9667e-05 6.6950e-03 -2.9449e-05 1.3586e-05 2.7099e-03 -1.8314e-06 8.1543e-05 
6.1581e-03 -3.5573e-05 8.4219e-05 2.3969e-03 -1.2105e-05 -1.1263e-05 6.2662e-03 1.3837e-05 -8.2580e-05 2.4017e-03 2.6654e-06 -1.0186e-04 6.2407e-03 3.9547e-05 -1.1646e-04 2.3699e-03 -1.9101e-05 -6.0743e-06 6.2248e-03 -8.4698e-05 5.7569e-05 2.3846e-03 -7.3630e-05 4.2041e-05 6.1562e-03 -5.4542e-05 4.5106e-05 2.2855e-03 -2.2839e-05 8.1946e-05 
5.1010e-03 2.9181e-05 3.7686e-05 1.3691e-03 1.9657e-05 5.6714e-05 5.1854e-03 8.9117e-06 2.9662e-06 1.3569e-03 1.0376e-05 -4.0388e-05 5.1656e-03 1.6081e-05 -3.8902e-05 1.3251e-03 5.6980e-05 -3.6324e-05 5.1230e-03 5.8850e-05 4.9876e-05 1.3096e-03 6.0876e-06 3.5947e-05 5.1053e-03 -6.3994e-06 -2.2141e-05 1.2762e-03 -6.0807e-06 1.6733e-05 
3.2826e-03 1.7654e-05 2.0986e-05 -4.2414e-04 -3.4355e-05 3.1877e-05 3.3148e-03 -3.6441e-05 1.0205e-05 -4.4803e-04 -4.1302e-05 -4.6664e-06 3.3212e-03 -1.3134e-05 -2.2282e-05 -4.5332e-04 -8.3007e-06 -9.5001e-06 3.2663e-03 -5.1098e-06 1.6968e-05 -4.9168e-04 -1.5758e-05 4.7432e-05 3.2719e-03 -3.3784e-05 3.5608e-05 -4.6600e-04 -4.9932e-05 4.1849e-06 
0.0000e+00 0.0000e+00 0.0000e+00 0.0000e+00 0.0000e+00 0.0000e+00 0.0000e+00 0.0000e+00 0.0000e+00 0.0000e+00 0.0000e+00 0.0000e+00 0.0000e+00 0.0000e+00 0.0000e+00 0.0000e+00 0.0000e+00 0.0000e+00 0.0000e+00 0.0000e+00 0.0000e+00 0.0000e+00 0.0000e+00 0.0000e+00 0.0000e+00 0.0000e+00 0.0000e+00 0.0000e+00 0.0000e+00 0.0000e+00 
0.0000e+00 0.0000e+00 0.0000e+00 0.0000e+00 0.0000e+00 0.0000e+00 0.0000e+00 0.0000e+00 0.0000e+00 0.0000e+00 0.0000e+00 0.0000e+00 0.0000e+00 0.0000e+00 0.0000e+00 0.0000e+00 0.0000e+00 0.0000e+00 0.0000e+00 0.0000e+00 0.0000e+00 0.0000e+00 0.0000e+00 0.0000e+00 0.0000e+00 0.0000e+00 0.0000e+00 0.0000e+00 0.0000e+00 0.0000e+00 
3.3319e-03 1.9196e-05 -1.7283e-05 -4.9908e-04 5.8539e-05 3.9737e-05 3.3680e-03 1.7132e-05 -1.0580e-05 -5.0945e-04 -1.2872e-05 -2.6615e-05 3.4565e-03 2.6659e-05 1.4041e-05 -5.8342e-04 2.1574e-05 -1.4748e-05 3.4817e-03 3.6537e-05 1.2912e-05 -6.0110e-04 6.4549e-05 2.8840e-05 3.4081e-03 1.3567e-05 -3.7602e-05 -5.4050e-04 4.7311e-05 -6.0442e-05 
5.1590e-03 -2.3096e-05 1.3219e-05 1.3507e-03 -4.9393e-05 -1.8158e-05 5.0714e-03 -3.3206e-05 -1.6835e-04 1.3379e-03 -1.0932e-05 2.3249e-05 5.1762e-03 -4.7409e-05 1.7998e-04 1.2530e-03 1.5126e-05 8.8684e-05 5.3187e-03 -1.2399e-05 2.6642e-05 1.2249e-03 -2.5791e-05 -7.1448e-05 5.2112e-03 -1.3908e-05 -9.1889e-05 1.3085e-03 -2.9130e-05 -6.7039e-05 
6.2946e-03 -1.3119e-05 -4.1607e-05 2.4634e-03 -2.1242e-05 -6.8252e-05 6.3172e-03 5.3483e-06 3.1994e-05 2.3984e-03 4.1603e-05 1.1424e-05 6.3997e-03 9.3362e-06 -6.0815e-05 2.3801e-03 5.1681e-05 3.7009e-05 6.4049e-03 6.8897e-05 5.7251e-05 2.2943e-03 5.2083e-05 -1.2818e-04 6.3303e-03 4.1601e-05 -6.8820e-05 2.3350e-03 1.9286e-05 7.6298e-05 
6.8849e-03 -4.3287e-05 -6.7290e-05 3.0297e-03 -4.0909e-05 3.3176e-06 6.8870e-03 -1.3837e-05 -2.2851e-05 2.8791e-03 -8.8563e-06 -1.1806e-04 6.8717e-03 -6.1368e-06 -4.3756e-05 2.8721e-03 -3.2967e-05 2.2946e-05 6.9748e-03 -6.0363e-06 6.0509e-05 2.9452e-03 -2.8097e-05 3.4194e-05 6.9547e-03 -4.6305e-05 -1.4781e-05 3.0450e-03 -2.2561e-06 -3.4899e-05 
6.9044e-03 6.8807e-05 -2.1697e-05 3.1167e-03 7.2647e-05 -1.6539e-05 6.9692e-03 1.0005e-04 -5.4965e-05 2.9773e-03 4.9884e-05 -9.6914e-05 6.9198e-03 1.2574e-05 -2.4559e-05 2.9584e-03 5.6479e-06 -3.4864e-05 6.9517e-03 -4.0002e-05 -1.3437e-05 2.9664e-03 -5.4060e-05 8.6598e-05 6.9297e-03 -2.1425e-05 2.7248e-05 3.1140e-03 3.8603e-05 -8.2524e-06 
6.3211e-03 -1.6449e-06 1.9591e-05 2.6652e-03 5.0359e-05 -4.7090e-05 6.2303e-03 2.9683e-05 -2.4262e-04 2.5911e-03 4.5060e-06 -5.2138e-05 6.1984e-03 7.8398e-06 1.3254e-04 2.5855e-03 -3.5571e-05 -1.6316e-05 6.3351e-03 -9.1064e-05 -5.0730e-07 2.5581e-03 -1.0020e-04 5.6234e-05 6.2679e-03 -6.8053e-05 4.4200e-05 2.6244e-03 -4.7094e-05 4.3399e-06 
5.2213e-03 1.7594e-05 6.7268e-05 1.5643e-03 3.8813e-05 -7.3834e-06 5.3457e-03 3.2334e-05 -2.6928e-05 1.5269e-03 1.2460e-05 -6.4810e-05 5.3208e-03 8.8461e-05 -8.6961e-05 1.5028e-03 4.6453e-05 -1.1382e-06 5.2543e-03 7.0330e-06 -4.1939e-06 1.3314e-03 2.1154e-06 -1.5730e-04 5.1464e-03 -3.1625e-05 -2.0974e-05 1.3374e-03 -1.6161e-05 1.8241e-04 
3.3645e-03 -3.0127e-06 1.4488e-05 -3.7370e-04 -3.3131e-06 9.8840e-06 3.4016e-03 -3.0982e-05 -2.1679e-05 -3.8485e-04 -6.3531e-05 -1.8047e-05 3.4120e-03 -2.8875e-05 -5.5981e-06 -4.2306e-04 8.6192e-06 -3.1896e-05 3.3794e-03 2.2853e-06 -1.5553e-05 -4.3629e-04 -4.9044e-05 -2.0900e-05 3.3339e-03 -2.0088e-05 -1.5194e-05 -4.1242e-04 -4.1214e-05 1.2390e-05 
0.0000e+00 0.0000e+00 0.0000e+00 0.0000e+00 0.0000e+00 0.0000e+00 0.0000e+00 0.0000e+00 0.0000e+00 0.0000e+00 0.0000e+00 0.0000e+00 0.0000e+00 0.0000e+00 0.0000e+00 0.0000e+00 0.0000e+00 0.0000e+00 0.0000e+00 0.0000e+00 0.0000e+00 0.0000e+00 0.0000e+00 0.0000e+00 0.0000e+00 0.0000e+00 0.0000e+00 0.0000e+00 0.0000e+00 0.0000e+00 
0.0000e+00 0.0000e+00 0.0000e+00 0.0000e+00 0.0000e+00 0.0000e+00 0.0000e+00 0.0000e+00 0.0000e+00 0.0000e+00 0.0000e+00 0.0000e+00 0.0000e+00 0.0000e+00 0.0000e+00 0.0000e+00 0.0000e+00 0.0000e+00 0.0000e+00 0.0000e+00 0.0000e+00 0.0000e+00 0.0000e+00 0.0000e+00 0.0000e+00 0.0000e+00 0.0000e+00 0.0000e+00 0.0000e+00 0.0000e+00 
3.2585e-03 5.9009e-05 -7.9731e-07 -4.8712e-04 7.4637e-05 2.6781e-06 3.0630e-03 -1.3342e-04 9.1559e-06 -4.7534e-04 -5.4344e-05 1.5649e-05 3.2271e-03 2.2333e-04 1.6647e-05 -5.8224e-04 3.6393e-05 1.0745e-05 3.4758e-03 9.7655e-05 3.7886e-06 -6.1312e-04 1.1644e-04 3.5933e-06 3.2573e-03 -4.4543e-05 -4.2011e-06 -5.1620e-04 7.4257e-06 -1.8278e-06 
4.9113e-03 -6.4675e-05 -2.8575e-06 1.2586e-03 -1.3889e-04 4.3870e-06 4.7359e-03 -1.7457e-05 1.0164e-05 1.3104e-03 1.3800e-05 2.2500e-05 4.8312e-03 -4.3246e-05 2.5407e-05 1.2402e-03 3.3850e-05 -1.7389e-05 5.2047e-03 -4.7593e-06 1.5205e-05 1.0703e-03 -1.5995e-04 2.9363e-05 5.0144e-03 -1.4418e-05 -1.2590e-05 1.1977e-03 1.2483e-04 -1.2699e-05 
5.8352e-03 -5.2757e-05 2.8622e-06 2.3776e-03 -2.5340e-06 4.2675e-06 5.9501e-03 1.5349e-04 1.1223e-05 2.1660e-03 -9.8081e-05 1.4484e-05 5.9864e-03 -1.9108e-04 1.9593e-05 2.3583e-03 7.0339e-05 2.4308e-05 6.2009e-03 1.0324e-04 1.6166e-05 2.1029e-03 1.0504e-04 -7.0656e-06 6.1433e-03 7.5301e-05 -1.3854e-05 2.1784e-03 2.4588e-05 -6.2459e-06 
6.6202e-03 1.1359e-05 1.5260e-05 2.9165e-03 6.2522e-06 1.3642e-05 6.3641e-03 -6.5179e-05 1.2312e-05 2.6297e-03 -5.9590e-05 3.5843e-07 6.6240e-03 -8.8956e-07 -5.2686e-07 2.7093e-03 -8.7774e-05 6.5196e-06 6.7077e-03 -8.7755e-05 1.2991e-05 2.6998e-03 1.3753e-04 -8.5290e-06 6.7184e-03 2.6332e-05 -5.0306e-06 2.8663e-03 -1.0824e-04 1.2327e-05 
6.6530e-03 9.8931e-05 3.4674e-05 2.9987e-03 2.6093e-05 2.9671e-05 6.4021e-03 -1.4353e-04 1.0673e-05 2.8022e-03 1.2429e-04 -1.1706e-05 6.3985e-03 2.2251e-04 -2.1053e-05 2.5325e-03 -2.4355e-05 -1.0901e-05 6.6955e-03 -6.9762e-05 -3.0237e-06 2.8422e-03 -3.6980e-05 -5.6288e-06 6.6301e-03 4.5976e-05 8.5342e-06 3.0360e-03 4.9889e-05 2.3264e-05 
6.0677e-03 8.0841e-05 4.4518e-05 2.5759e-03 7.7723e-05 3.2648e-05 5.8305e-03 3.9518e-05 8.6079e-06 2.4133e-03 -1.9370e-05 -1.6498e-05 5.7554e-03 -8.7620e-05 -2.8202e-05 2.4153e-03 -1.3608e-05 -2.2502e-05 5.9647e-03 -6.1517e-05 -1.3005e-05 2.2371e-03 -3.0933e-04 2.4477e-06 5.8331e-03 -8.8711e-05 1.7760e-05 2.3831e-03 1.2313e-04 3.0556e-05 
5.0253e-03 3.7717e-05 3.5330e-05 1.4542e-03 7.2091e-05 2.9605e-05 4.9831e-03 2.3941e-04 8.3797e-06 1.3851e-03 5.7439e-05 -1.8853e-05 5.0057e-03 -1.1597e-04 -2.6121e-05 1.4281e-03 2.3279e-05 -1.7982e-05 5.0681e-03 -1.1549e-05 -3.2151e-06 1.0343e-03 -8.3029e-05 7.8069e-06 4.9597e-03 -7.4530e-05 1.9767e-05 1.1492e-03 1.9243e-06 3.0395e-05 
3.2823e-03 -1.0482e-04 1.8744e-05 -4.1698e-04 5.5463e-06 1.7978e-05 3.3647e-03 -2.1810e-05 1.0906e-05 -4.2949e-04 7.5669e-06 -6.8785e-06 3.3455e-03 -9.6493e-06 -1.6078e-05 -4.7247e-04 -1.2688e-05 -5.2737e-06 3.3304e-03 6.9008e-05 1.0709e-05 -6.1811e-04 1.0422e-04 1.3157e-05 3.2654e-03 -4.3886e-06 1.7802e-05 -5.8524e-04 -2.5917e-04 2.2428e-05 
0.0000e+00 0.0000e+00 0.0000e+00 0.0000e+00 0.0000e+00 0.0000e+00 0.0000e+00 0.0000e+00 0.0000e+00 0.0000e+00 0.0000e+00 0.0000e+00 0.0000e+00 0.0000e+00 0.0000e+00 0.0000e+00 0.0000e+00 0.0000e+00 0.0000e+00 0.0000e+00 0.0000e+00 0.0000e+00 0.0000e+00 0.0000e+00 0.0000e+00 0.0000e+00 0.0000e+00 0.0000e+00 0.0000e+00 0.0000e+00 
0.0000e+00 0.0000e+00 0.0000e+00 0.0000e+00 0.0000e+00 0.0000e+00 0.0000e+00 0.0000e+00 0.0000e+00 0.0000e+00 0.0000e+00 0.0000e+00 0.0000e+00 0.0000e+00 0.0000e+00 0.0000e+00 0.0000e+00 0.0000e+00 0.0000e+00 0.0000e+00 0.0000e+00 0.0000e+00 0.0000e+00 0.0000e+00 0.0000e+00 0.0000e+00 0.0000e+00 0.0000e+00 0.0000e+00 0.0000e+00 
3.1674e-03 1.0744e-05 4.7379e-06 -6.0190e-04 6.1694e-05 -4.0743e-05 3.2028e-03 1.3974e-05 -1.5028e-06 -5.8744e-04 -1.7509e-05 1.7222e-05 3.2834e-03 1.7366e-05 -1.5287e-05 -6.8351e-04 -2.3278e-06 3.9593e-05 3.2870e-03 6.0065e-05 -9.4457e-06 -7.0261e-04 1.0318e-04 -5.6347e-05 3.2303e-03 2.6169e-05 -6.3025e-06 -6.1908e-04 3.0989e-05 1.5118e-05 
4.7651e-03 -2.3592e-05 -3.1820e-05 1.0192e-03 -5.6103e-05 1.4781e-05 4.6567e-03 -4.8154e-05 1.5916e-04 1.0313e-03 -2.8390e-05 -1.9091e-05 4.7790e-03 -5.7090e-05 -1.7035e-04 9.7385e-04 -4.4404e-06 -1.1966e-06 4.9143e-03 -1.1669e-05 -3.0860e-05 9.3214e-04 -1.0847e-05 -5.1483e-05 4.7949e-03 -1.2415e-06 2.5033e-05 1.0005e-03 -2.4785e-05 -3.8678e-06 
5.7227e-03 -1.5201e-06 2.4215e-05 1.9597e-03 -2.4105e-05 7.0801e-05 5.7410e-03 -1.3982e-06 -3.2205e-05 1.9315e-03 2.3054e-05 -2.2201e-05 5.8295e-03 -1.4304e-05 5.2479e-05 1.9202e-03 6.9864e-05 -2.9061e-05 5.8450e-03 7.4347e-05 -7.0703e-05 1.8268e-03 2.4773e-05 7.5619e-05 5.7495e-03 5.7968e-05 -4.8259e-06 1.8627e-03 4.1577e-05 -1.4066e-04 
6.2261e-03 -2.3519e-05 5.9684e-05 2.4336e-03 -2.9019e-05 7.7910e-06 6.2238e-03 -2.6307e-05 7.6816e-06 2.2961e-03 -3.5788e-05 8.4730e-05 6.2193e-03 -4.2079e-05 5.8060e-06 2.3215e-03 -6.5740e-05 -5.9840e-05 6.3159e-03 -7.1650e-06 -8.5412e-05 2.3757e-03 -1.1380e-05 -6.9277e-05 6.2950e-03 -1.8766e-05 -2.1758e-05 2.4660e-03 2.6521e-05 -6.6604e-06 
6.2599e-03 9.0763e-05 2.7258e-05 2.4922e-03 7.8508e-05 1.8699e-05 6.3178e-03 9.0720e-05 2.7755e-05 2.3706e-03 3.2883e-05 2.5801e-05 6.2834e-03 -1.0341e-05 -4.7398e-05 2.3719e-03 -1.0358e-05 -2.1530e-05 6.3065e-03 -4.7092e-05 -1.7175e-05 2.3640e-03 -3.3901e-05 -9.6725e-05 6.2672e-03 3.2915e-06 -3.1536e-05 2.4994e-03 5.6298e-05 2.6165e-06 
5.7585e-03 8.0942e-06 1.7925e-06 2.0933e-03 5.0982e-05 4.1841e-05 5.6879e-03 2.5990e-05 2.1327e-04 2.0547e-03 -7.6723e-06 -3.0215e-05 5.6887e-03 -2.3731e-06 -2.3889e-04 2.0563e-03 -4.2337e-05 -4.7081e-05 5.7867e-03 -9.9108e-05 -2.1889e-05 2.0206e-03 -1.0191e-04 -4.7882e-05 5.6876e-03 -6.5738e-05 -2.8744e-05 2.0761e-03 -3.3242e-05 7.4770e-06 
4.8375e-03 1.5389e-05 -3.8796e-05 1.1558e-03 4.3640e-05 2.7972e-06 4.9559e-03 3.7658e-05 -1.8418e-05 1.1418e-03 1.6980e-05 -4.2891e-06 4.9637e-03 8.7335e-05 1.3266e-05 1.1322e-03 4.2230e-05 -5.7868e-05 4.8906e-03 7.9848e-06 -2.4110e-05 9.5306e-04 -4.7050e-06 1.5582e-04 4.7630e-03 -3.1273e-05 2.7026e-05 9.5252e-04 -8.0964e-06 -1.6818e-04 
3.2219e-03 -7.8864e-06 -1.2604e-05 -5.2302e-04 -2.1667e-05 -1.4741e-05 3.2466e-03 -2.3011e-05 -1.5777e-05 -5.3825e-04 -5.9703e-05 -2.7968e-05 3.2799e-03 -4.6908e-05 -3.0651e-05 -5.4580e-04 1.1471e-05 -4.2388e-06 3.2528e-03 6.1648e-06 -9.4428e-06 -5.7598e-04 -4.1578e-05 3.9569e-06 3.1968e-03 -2.1686e-05 1.2373e-05 -5.5701e-04 -3.9562e-05 -1.0589e-05 
0.0000e+00 0.0000e+00 0.0000e+00 0.0000e+00 0.0000e+00 0.0000e+00 0.0000e+00 0.0000e+00 0.0000e+00 0.0000e+00 0.0000e+00 0.0000e+00 0.0000e+00 0.0000e+00 0.0000e+00 0.0000e+00 0.0000e+00 0.0000e+00 0.0000e+00 0.0000e+00 0.0000e+00 0.0000e+00 0.0000e+00 0.0000e+00 0.0000e+00 0.0000e+00 0.0000e+00 0.0000e+00 0.0000e+00 0.0000e+00 
0.0000e+00 0.0000e+00 0.0000e+00 0.0000e+00 0.0000e+00 0.0000e+00 0.0000e+00 0.0000e+00 0.0000e+00 0.0000e+00 0.0000e+00 0.0000e+00 0.0000e+00 0.0000e+00 0.0000e+00 0.0000e+00 0.0000e+00 0.0000e+00 0.0000e+00 0.0000e+00 0.0000e+00 0.0000e+00 0.0000e+00 0.0000e+00 0.0000e+00 0.0000e+00 0.0000e+00 0.0000e+00 0.0000e+00 0.0000e+00 
2.9807e-03 1.5906e-05 9.8716e-07 -8.6813e-04 2.7049e-05 1.0463e-05 3.0213e-03 2.2699e-05 1.0555e-05 -8.4547e-04 1.7182e-05 2.2088e-05 3.0374e-03 -8.4027e-06 9.4590e-06 -8.4179e-04 5.6194e-05 4.9372e-06 3.0252e-03 3.1392e-05 1.2420e-05 -8.6902e-04 1.7471e-05 1.8520e-05 2.9982e-03 4.0956e-05 1.1543e-05 -8.7462e-04 5.0705e-05 -6.8050e-06 
4.2308e-03 -2.2542e-05 1.2563e-05 3.8383e-04 -4.7388e-06 -1.5199e-05 4.2753e-03 -5.8196e-05 2.7556e-05 4.0541e-04 -6.2702e-05 3.7997e-05 4.3297e-03 -3.5307e-05 7.8707e-06 3.9469e-04 -2.0898e-05 3.7967e-05 4.2755e-03 -2.3083e-05 6.3941e-06 3.4205e-04 1.6050e-06 -4.3604e-05 4.2479e-03 2.0596e-07 7.4616e-06 3.4318e-04 -2.4104e-05 2.3001e-05 
4.9804e-03 3.6179e-05 1.6952e-05 1.0592e-03 -5.2107e-06 1.0413e-05 4.9494e-03 4.0528e-06 6.0207e-06 1.0970e-03 3.4328e-05 8.3168e-06 5.0382e-03 1.6712e-05 1.5009e-05 1.0865e-03 1.1738e-05 3.8933e-06 5.0003e-03 3.7174e-05 1.6991e-06 1.0696e-03 6.3021e-05 -1.6619e-05 4.9124e-03 4.5304e-05 2.5709e-05 1.0394e-03 4.7858e-05 5.5721e-05 
5.2616e-03 -1.8783e-05 7.2863e-05 1.3822e-03 -4.1394e-05 7.6156e-05 5.3582e-03 6.5659e-06 4.7424e-05 1.4129e-03 -9.4635e-06 -3.5524e-05 5.3052e-03 -7.7006e-05 -7.6842e-06 1.4078e-03 -3.3039e-05 1.0378e-06 5.3446e-03 -4.2472e-06 -3.7302e-05 1.3702e-03 -3.5086e-05 -3.5825e-05 5.2848e-03 -1.9098e-05 -1.3229e-05 1.3585e-03 -1.6695e-06 3.6481e-05 
5.3092e-03 4.8913e-05 4.1497e-05 1.4259e-03 8.8299e-05 6.4882e-05 5.3862e-03 8.9099e-05 4.4218e-05 1.3913e-03 1.6605e-05 2.7192e-05 5.4109e-03 -6.8058e-06 4.0901e-05 1.4793e-03 -3.1580e-06 1.9914e-05 5.3571e-03 -7.1788e-06 -6.9058e-05 1.3673e-03 -1.7487e-05 -5.2226e-05 5.2872e-03 -1.8253e-06 1.1435e-05 1.3849e-03 3.4994e-05 -7.9212e-06 
4.9468e-03 -9.6623e-06 -1.4095e-05 1.1527e-03 7.8586e-06 2.6303e-05 5.0814e-03 -5.4014e-06 3.0868e-05 1.1462e-03 -1.3979e-05 1.8597e-06 5.0795e-03 7.9825e-06 4.6402e-05 1.1947e-03 -5.1631e-05 3.3866e-05 5.0116e-03 -8.5757e-05 1.9399e-05 1.1328e-03 -5.9738e-05 1.7802e-05 4.9168e-03 -4.7046e-05 -1.4574e-05 1.1048e-03 -3.2557e-05 -1.9193e-05 
4.2680e-03 2.6554e-05 3.1853e-05 4.6735e-04 2.8187e-05 6.2370e-06 4.3223e-03 -1.7556e-06 -3.2301e-06 4.9681e-04 1.5529e-05 -1.0420e-05 4.3610e-03 5.8242e-05 -2.0956e-05 4.8844e-04 4.6661e-05 1.7523e-05 4.3088e-03 2.5478e-05 1.6746e-05 4.3790e-04 8.5321e-06 1.6671e-05 4.2194e-03 1.2157e-05 3.4045e-05 4.2022e-04 3.8114e-06 1.8222e-05 
2.9767e-03 -3.0321e-07 2.9416e-05 -7.8576e-04 -2.9077e-05 2.9387e-06 2.9877e-03 -1.6090e-05 -7.0782e-06 -7.7942e-04 -5.2963e-05 -1.0150e-05 3.0157e-03 -4.0386e-05 -6.4311e-06 -7.8306e-04 -2.8792e-05 -1.5914e-06 2.9930e-03 -8.8246e-06 5.3119e-06 -8.1786e-04 -3.5766e-05 1.6469e-05 2.9565e-03 -3.1598e-05 2.2647e-05 -8.1148e-04 -2.1538e-05 3.0789e-05 
0.0000e+00 0.0000e+00 0.0000e+00 0.0000e+00 0.0000e+00 0.0000e+00 0.0000e+00 0.0000e+00 0.0000e+00 0.0000e+00 0.0000e+00 0.0000e+00 0.0000e+00 0.0000e+00 0.0000e+00 0.0000e+00 0.0000e+00 0.0000e+00 0.0000e+00 0.0000e+00 0.0000e+00 0.0000e+00 0.0000e+00 0.0000e+00 0.0000e+00 0.0000e+00 0.0000e+00 0.0000e+00 0.0000e+00 0.0000e+00 
0.0000e+00 0.0000e+00 0.0000e+00 0.0000e+00 0.0000e+00 0.0000e+00 0.0000e+00 0.0000e+00 0.0000e+00 0.0000e+00 0.0000e+00 0.0000e+00 0.0000e+00 0.0000e+00 0.0000e+00 0.0000e+00 0.0000e+00 0.0000e+00 0.0000e+00 0.0000e+00 0.0000e+00 0.0000e+00 0.0000e+00 0.0000e+00 0.0000e+00 0.0000e+00 0.0000e+00 0.0000e+00 0.0000e+00 0.0000e+00 
2.4921e-03 2.8187e-05 -9.8146e-06 -1.3780e-03 2.1674e-05 -1.2714e-06 2.5044e-03 1.7924e-05 3.0656e-06 -1.3654e-03 2.8686e-05 -6.4012e-06 2.5060e-03 1.7128e-05 3.1278e-06 -1.3615e-03 3.1428e-05 -1.3652e-05 2.5119e-03 2.4349e-05 -7.3192e-06 -1.3747e-03 2.8780e-05 -6.5367e-06 2.4773e-03 3.3606e-05 -7.1875e-06 -1.3866e-03 3.3419e-05 -1.2640e-05 
3.0124e-03 -2.0106e-05 -4.7838e-08 -8.6283e-04 -3.0791e-05 -1.0040e-05 3.0477e-03 -3.1895e-05 -1.3486e-06 -8.3923e-04 -4.1978e-05 -5.5396e-06 3.0568e-03 -3.7899e-05 1.2487e-05 -8.2816e-04 -2.1205e-05 -3.4113e-05 3.0433e-03 -2.1284e-05 -7.3843e-06 -8.5411e-04 -2.2130e-05 6.3271e-06 3.0147e-03 -1.0911e-05 -7.4571e-07 -8.8010e-04 -6.0553e-06 -2.1112e-05 
3.2873e-03 2.6674e-05 -8.4351e-06 -5.9948e-04 2.7797e-05 -2.3784e-05 3.3254e-03 2.1570e-05 1.0839e-05 -5.8696e-04 1.0366e-05 1.2688e-05 3.3495e-03 1.8114e-05 -5.2493e-06 -5.6633e-04 3.0562e-05 -3.9172e-05 3.3272e-03 3.7916e-05 -7.6680e-06 -5.9889e-04 3.9154e-05 2.5565e-06 3.2995e-03 3.8886e-05 1.4857e-05 -6.2955e-04 3.7349e-05 -1.9572e-05 
3.4139e-03 -2.2799e-05 -3.5295e-06 -4.8970e-04 -1.0386e-05 -1.4866e-05 3.4422e-03 -1.3604e-05 2.7254e-05 -4.6526e-04 -2.2838e-05 1.6011e-05 3.4806e-03 -2.8825e-05 -4.3074e-06 -4.4551e-04 -3.5586e-05 -3.9992e-05 3.4520e-03 -3.3705e-05 -1.7776e-05 -4.8646e-04 -2.3803e-05 -2.1180e-05 3.4096e-03 -2.2646e-05 -1.5114e-06 -5.1355e-04 -2.7506e-05 -2.0098e-05 
3.4272e-03 3.2574e-05 -6.2944e-06 -4.6592e-04 4.1762e-05 -9.4978e-06 3.4627e-03 5.4027e-05 2.9626e-06 -4.6382e-04 4.1774e-05 -1.4133e-06 3.4841e-03 2.1952e-05 9.1121e-06 -4.3975e-04 1.2840e-05 -4.4904e-05 3.4598e-03 6.1084e-06 -1.1635e-05 -4.6113e-04 1.2746e-05 -1.6719e-05 3.4012e-03 1.0177e-05 -8.4004e-07 -4.9733e-04 1.5208e-05 -1.8364e-05 
3.3024e-03 -1.7288e-05 -8.3694e-06 -5.5708e-04 -1.5259e-05 -7.3322e-06 3.3566e-03 -2.3812e-05 -5.1277e-05 -5.6758e-04 -2.3635e-05 -2.3850e-05 3.3626e-03 -2.6930e-05 3.0217e-05 -5.4303e-04 -3.5589e-05 -4.9565e-05 3.3320e-03 -3.3301e-05 2.0820e-06 -5.6289e-04 -4.4563e-05 -1.0765e-05 3.2628e-03 -4.1787e-05 1.0500e-05 -5.8642e-04 -2.6556e-05 6.6496e-07 