<?xml version="1.0"?>
<!-- openLBMflow v1.0.1, www.lbmflow.com -->
<VTKFile type="ImageData" version="0.1" byte_order="LittleEndian">
  <ImageData WholeExtent="0 9 0 9 0 9" Origin="0 0 0" Spacing="1 1 1">
  <Piece Extent="0 9 0 9 0 9">
    <PointData Scalars="scalars">
      <DataArray type="Float32" Name="Velocity" NumberOfComponents="3" format="ascii">
0.0000e+00 0.0000e+00 0.0000e+00 0.0000e+00 0.0000e+00 0.0000e+00 0.0000e+00 0.0000e+00 0.0000e+00 0.0000e+00 0.0000e+00 0.0000e+00 0.0000e+00 0.0000e+00 0.0000e+00 0.0000e+00 0.0000e+00 0.0000e+00 0.0000e+00 0.0000e+00 0.0000e+00 0.0000e+00 0.0000e+00 0.0000e+00 0.0000e+00 0.0000e+00 0.0000e+00 0.0000e+00 0.0000e+00 0.0000e+00 
0.0000e+00 0.0000e+00 0.0000e+00 0.0000e+00 0.0000e+00 0.0000e+00 0.0000e+00 0.0000e+00 0.0000e+00 0.0000e+00 0.0000e+00 0.0000e+00 0.0000e+00 0.0000e+00 0.0000e+00 0.0000e+00 0.0000e+00 0.0000e+00 0.0000e+00 0.0000e+00 0.0000e+00 0.0000e+00 0.0000e+00 0.0000e+00 0.0000e+00 0.0000e+00 0.0000e+00 0.0000e+00 0.0000e+00 0.0000e+00 
0.0000e+00 0.0000e+00 0.0000e+00 0.0000e+00 0.0000e+00 0.0000e+00 0.0000e+00 0.0000e+00 0.0000e+00 0.0000e+00 0.0000e+00 0.0000e+00 0.0000e+00 0.0000e+00 0.0000e+00 0.0000e+00 0.0000e+00 0.0000e+00 0.0000e+00 0.0000e+00 0.0000e+00 0.0000e+00 0.0000e+00 0.0000e+00 0.0000e+00 0.0000e+00 0.0000e+00 0.0000e+00 0.0000e+00 0.0000e+00 
0.0000e+00 0.0000e+00 0.0000e+00 0.0000e+00 0.0000e+00 0.0000e+00 0.0000e+00 0.0000e+00 0.0000e+00 0.0000e+00 0.0000e+00 0.0000e+00 0.0000e+00 0.0000e+00 0.0000e+00 0.0000e+00 0.0000e+00 0.0000e+00 0.0000e+00 0.0000e+00 0.0000e+00 0.0000e+00 0.0000e+00 0.0000e+00 0.0000e+00 0.0000e+00 0.0000e+00 0.0000e+00 0.0000e+00 0.0000e+00 
0.0000e+00 0.0000e+00 0.0000e+00 0.0000e+00 0.0000e+00 0.0000e+00 0.0000e+00 0.0000e+00 0.0000e+00 0.0000e+00 0.0000e+00 0.0000e+00 0.0000e+00 0.0000e+00 0.0000e+00 0.0000e+00 0.0000e+00 0.0000e+00 0.0000e+00 0.0000e+00 0.0000e+00 0.0000e+00 0.0000e+00 0.0000e+00 0.0000e+00 0.0000e+00 0.0000e+00 0.0000e+00 0.0000e+00 0.0000e+00 
0.0000e+00 0.0000e+00 0.0000e+00 0.0000e+00 0.0000e+00 0.0000e+00 0.0000e+00 0.0000e+00 0.0000e+00 0.0000e+00 0.0000e+00 0.0000e+00 0.0000e+00 0.0000e+00 0.0000e+00 0.0000e+00 0.0000e+00 0.0000e+00 0.0000e+00 0.0000e+00 0.0000e+00 0.0000e+00 0.0000e+00 0.0000e+00 0.0000e+00 0.0000e+00 0.0000e+00 0.0000e+00 0.0000e+00 0.0000e+00 
0.0000e+00 0.0000e+00 0.0000e+00 0.0000e+00 0.0000e+00 0.0000e+00 0.0000e+00 0.0000e+00 0.0000e+00 0.0000e+00 0.0000e+00 0.0000e+00 0.0000e+00 0.0000e+00 0.0000e+00 0.0000e+00 0.0000e+00 0.0000e+00 0.0000e+00 0.0000e+00 0.0000e+00 0.0000e+00 0.0000e+00 0.0000e+00 0.0000e+00 0.0000e+00 0.0000e+00 0.0000e+00 0.0000e+00 0.0000e+00 
0.0000e+00 0.0000e+00 0.0000e+00 0.0000e+00 0.0000e+00 0.0000e+00 0.0000e+00 0.0000e+00 0.0000e+00 0.0000e+00 0.0000e+00 0.0000e+00 0.0000e+00 0.0000e+00 0.0000e+00 0.0000e+00 0.0000e+00 0.0000e+00 0.0000e+00 0.0000e+00 0.0000e+00 0.0000e+00 0.0000e+00 0.0000e+00 0.0000e+00 0.0000e+00 0.0000e+00 0.0000e+00 0.0000e+00 0.0000e+00 
0.0000e+00 0.0000e+00 0.0000e+00 0.0000e+00 0.0000e+00 0.0000e+00 0.0000e+00 0.0000e+00 0.0000e+00 0.0000e+00 0.0000e+00 0.0000e+00 0.0000e+00 0.0000e+00 0.0000e+00 0.0000e+00 0.0000e+00 0.0000e+00 0.0000e+00 0.0000e+00 0.0000e+00 0.0000e+00 0.0000e+00 0.0000e+00 0.0000e+00 0.0000e+00 0.0000e+00 0.0000e+00 0.0000e+00 0.0000e+00 
0.0000e+00 0.0000e+00 0.0000e+00 0.0000e+00 0.0000e+00 0.0000e+00 0.0000e+00 0.0000e+00 0.0000e+00 0.0000e+00 0.0000e+00 0.0000e+00 0.0000e+00 0.0000e+00 0.0000e+00 0.0000e+00 0.0000e+00 0.0000e+00 0.0000e+00 0.0000e+00 0.0000e+00 0.0000e+00 0.0000e+00 0.0000e+00 0.0000e+00 0.0000e+00 0.0000e+00 0.0000e+00 0.0000e+00 0.0000e+00 
0.0000e+00 0.0000e+00 0.0000e+00 0.0000e+00 0.0000e+00 0.0000e+00 0.0000e+00 0.0000e+00 0.0000e+00 0.0000e+00 0.0000e+00 0.0000e+00 0.0000e+00 0.0000e+00 0.0000e+00 0.0000e+00 0.0000e+00 0.0000e+00 0.0000e+00 0.0000e+00 0.0000e+00 0.0000e+00 0.0000e+00 0.0000e+00 0.0000e+00 0.0000e+00 0.0000e+00 0.0000e+00 0.0000e+00 0.0000e+00 
2.4015e-03 -2.4367e-05 2.9078e-06 -1.4181e-03 1.1371e-04 -1.8839e-05 2.6249e-03 1.1804e-05 -7.3383e-06 -1.3736e-03 1.1873e-05 -1.3495e-05 2.6709e-03 8.7548e-05 -4.5688e-06 -1.4607e-03 -7.8369e-05 1.1317e-05 2.7164e-03 1.0829e-04 9.1954e-06 -1.5349e-03 -5.0788e-06 1.8472e-05 2.6914e-03 1.5550e-05 -8.2099e-06 -1.3188e-03 2.0564e-04 2.7978e-05 
3.1979e-03 -1.0224e-04 -5.4736e-05 -6.3537e-04 5.4403e-05 3.0477e-05 3.1010e-03 7.2110e-05 -8.1946e-06 -7.4529e-04 3.6075e-05 -3.9974e-05 3.0842e-03 -3.5599e-05 -8.8650e-07 9.0128e-04 5.8163e-05 1.8582e-04 3.5004e-03 -8.9266e-05 3.5596e-05 -1.0283e-03 -3.2799e-05 -1.9637e-05 3.4316e-03 -1.3811e-05 2.3144e-05 -8.8254e-04 -1.1777e-04 1.3669e-04 
3.4080e-03 6.0467e-05 -1.7580e-05 -3.9701e-04 6.5058e-06 5.9467e-05 3.3616e-03 8.1484e-05 -8.9853e-06 -5.0729e-04 -4.6723e-05 -9.6512e-05 6.1544e-03 -1.2949e-05 3.7170e-05 -6.2490e-04 1.8479e-04 4.3334e-05 3.6449e-03 -5.2030e-05 8.4894e-06 -6.2170e-04 2.3313e-05 -1.3366e-05 3.5152e-03 2.7520e-05 6.3128e-06 -5.8819e-04 -1.9288e-05 7.5209e-05 
3.4617e-03 1.3635e-05 -2.1474e-05 -2.9170e-04 -4.2590e-05 1.6495e-05 3.6047e-03 3.2221e-05 2.2599e-06 -5.0280e-04 3.4179e-05 -1.3774e-04 3.9263e-03 -4.8927e-05 -2.0381e-05 -5.7410e-04 -1.2581e-04 1.0683e-04 3.7861e-03 -1.0718e-04 1.1189e-05 -4.2210e-04 -3.3491e-05 -1.6283e-05 3.5621e-03 -5.0028e-05 -1.0579e-05 -3.7326e-04 1.1352e-05 3.7484e-05 
3.4553e-03 2.6794e-05 -9.5211e-06 -7.6416e-05 2.3633e-04 1.2852e-05 3.7075e-03 1.1207e-05 7.5039e-06 -2.7712e-04 -1.6038e-04 -1.3213e-04 3.7738e-03 9.2662e-05 -3.4950e-06 -6.3196e-04 2.3202e-05 6.9784e-05 3.9201e-03 -9.0724e-06 3.4632e-05 -4.4802e-04 7.2739e-06 9.1588e-05 3.6117e-03 2.2336e-05 -4.6574e-05 -3.5213e-04 3.8653e-05 3.9239e-05 
3.4260e-03 -3.8998e-06 -6.6996e-07 -2.2419e-05 -1.2639e-05 3.6951e-05 3.1389e-03 -1.1798e-04 1.7945e-05 -1.2004e-04 -2.4012e-05 -1.3029e-04 3.7599e-03 -6.0542e-05 -3.4220e-05 -7.1608e-04 5.3058e-05 6.3499e-05 3.7061e-03 1.7052e-05 3.0395e-05 -4.9482e-04 -1.0902e-04 1.0070e-04 3.5027e-03 1.0708e-05 -3.6579e-05 2.1522e-03 -1.6885e-04 2.2842e-05 
3.2347e-03 1.3196e-05 2.4071e-06 -5.6816e-04 -2.4727e-04 2.4588e-05 5.2497e-03 6.6300e-05 5.4635e-07 -5.6931e-04 3.7379e-04 -4.8767e-05 3.1371e-03 -3.3546e-05 -1.0819e-04 -6.5216e-04 3.8672e-05 7.0134e-05 3.0907e-03 9.8813e-05 6.5404e-05 -6.3690e-04 -3.2363e-05 4.4722e-05 3.1762e-03 4.2730e-05 -6.6865e-07 -7.5590e-04 2.8010e-05 2.0897e-05 
2.4741e-03 -8.2938e-06 9.6088e-06 -1.3429e-03 -3.9800e-05 2.9707e-05 2.6907e-03 -9.8418e-05 2.5529e-05 -1.3596e-03 -1.0674e-04 -5.4466e-06 2.4238e-03 1.4468e-04 -7.6708e-05 -1.1277e-03 -3.5603e-05 2.1453e-05 2.3208e-03 -1.2298e-04 4.5619e-05 -1.1318e-03 2.9713e-06 1.9171e-05 2.5029e-03 -4.1182e-05 1.6808e-05 -1.2881e-03 4.0933e-05 -2.1675e-05 
0.0000e+00 0.0000e+00 0.0000e+00 0.0000e+00 0.0000e+00 0.0000e+00 0.0000e+00 0.0000e+00 0.0000e+00 0.0000e+00 0.0000e+00 0.0000e+00 0.0000e+00 0.0000e+00 0.0000e+00 0.0000e+00 0.0000e+00 0.0000e+00 0.0000e+00 0.0000e+00 0.0000e+00 0.0000e+00 0.0000e+00 0.0000e+00 0.0000e+00 0.0000e+00 0.0000e+00 0.0000e+00 0.0000e+00 0.0000e+00 
0.0000e+00 0.0000e+00 0.0000e+00 0.0000e+00 0.0000e+00 0.0000e+00 0.0000e+00 0.0000e+00 0.0000e+00 0.0000e+00 0.0000e+00 0.0000e+00 0.0000e+00 0.0000e+00 0.0000e+00 0.0000e+00 0.0000e+00 0.0000e+00 0.0000e+00 0.0000e+00 0.0000e+00 0.0000e+00 0.0000e+00 0.0000e+00 0.0000e+00 0.0000e+00 0.0000e+00 0.0000e+00 0.0000e+00 0.0000e+00 
3.1551e-03 -8.9210e-06 -3.7405e-05 -7.1008e-04 3.5836e-05 8.1204e-05 3.1358e-03 2.5867e-05 5.2922e-05 -8.4796e-04 2.3224e-05 3.2273e-06 3.1105e-03 4.7322e-05 -4.4059e-05 -8.2349e-04 9.2621e-05 -4.1301e-05 3.1876e-03 6.1633e-05 -2.8409e-05 -8.3524e-04 -8.8483e-06 2.3007e-06 3.1427e-03 -1.2018e-06 2.9809e-05 -7.6967e-04 6.7272e-05 -6.9977e-05 
4.4758e-03 -2.8175e-05 5.1590e-05 6.0339e-04 -9.3660e-06 -1.9963e-05 4.3737e-03 -1.8229e-05 1.5395e-06 5.1252e-04 -8.6673e-06 -5.4644e-05 4.4497e-03 -3.6812e-05 -6.8612e-05 4.1168e-04 -7.1797e-05 -3.0117e-05 4.5594e-03 -4.2589e-05 -5.9777e-05 3.3428e-04 -2.9945e-05 9.5924e-05 4.5529e-03 -2.6610e-05 2.5264e-05 4.3383e-04 -3.5214e-05 -2.6591e-05 
5.1813e-03 4.6117e-05 3.7306e-05 1.3640e-03 4.1942e-05 -1.7257e-05 5.1433e-03 8.3871e-05 -1.0259e-05 1.2694e-03 9.4615e-05 -2.2652e-05 5.1904e-03 5.3228e-05 -6.7081e-05 1.1990e-03 1.9315e-05 -5.7618e-05 5.2832e-03 -2.8521e-05 -1.7587e-05 1.1731e-03 7.1824e-06 4.3937e-05 5.2116e-03 -9.2788e-06 1.2521e-05 1.2319e-03 1.4161e-05 2.9432e-05 
5.4837e-03 -2.6771e-05 1.8330e-05 1.6968e-03 -2.2732e-05 2.5331e-05 5.5611e-03 -3.2492e-06 -4.2450e-05 1.5760e-03 3.9130e-05 1.6415e-05 5.5913e-03 1.5440e-05 -3.9317e-05 1.5567e-03 -5.6363e-05 -7.6878e-05 5.6654e-03 -5.2941e-05 1.2891e-05 1.5788e-03 -8.6391e-05 1.9576e-05 5.4945e-03 -1.1249e-04 4.0701e-05 1.6315e-03 -4.1751e-05 2.6106e-05 
5.4953e-03 2.3784e-05 2.6440e-05 1.6876e-03 1.5481e-05 4.6778e-05 5.5794e-03 4.8944e-05 -5.0421e-05 1.6315e-03 5.2850e-05 -4.7656e-05 5.6328e-03 9.8263e-05 -6.9271e-05 1.6032e-03 4.8069e-05 3.4456e-05 5.7258e-03 1.2785e-06 1.1369e-05 1.6103e-03 -1.5456e-05 -1.9892e-05 5.5476e-03 -2.8645e-05 7.3925e-05 1.6706e-03 2.3299e-05 -6.9791e-06 
5.2229e-03 -1.8293e-05 6.6319e-06 1.6018e-03 -5.2205e-05 -1.6833e-04 5.2988e-03 -3.4324e-05 -1.1943e-05 1.5239e-03 -2.8351e-05 2.3995e-04 5.3104e-03 3.5873e-06 -6.7514e-05 1.2579e-03 8.6429e-06 -4.9115e-06 5.3907e-03 -7.9986e-05 4.7892e-05 1.3347e-03 -8.9243e-05 -2.0327e-05 5.2486e-03 -3.5580e-05 3.5134e-05 1.3750e-03 -2.0333e-05 -1.9926e-05 
4.4947e-03 3.2699e-05 8.2937e-06 6.2795e-04 1.7195e-05 7.5625e-05 4.5640e-03 3.3557e-05 1.4735e-05 6.3502e-04 2.5517e-05 -6.6645e-05 4.4760e-03 3.7280e-05 7.7951e-07 6.1692e-04 8.2064e-05 -3.8072e-06 4.4570e-03 4.0471e-05 4.8471e-06 6.8209e-04 -7.7733e-06 4.6746e-05 4.4956e-03 1.3093e-05 -3.4634e-05 6.6601e-04 2.5701e-05 -3.8059e-05 
3.0672e-03 -2.5526e-05 7.5267e-06 -7.2220e-04 6.5831e-06 7.5035e-05 3.1251e-03 -3.7897e-05 -9.2893e-06 -7.3638e-04 -7.5808e-05 -5.6440e-05 3.0498e-03 1.4915e-06 4.7768e-05 -7.2800e-04 -3.5809e-05 -1.5214e-05 2.9899e-03 -4.7908e-06 2.3745e-06 -6.5710e-04 -4.8745e-05 4.1400e-05 3.0508e-03 -4.1646e-05 -4.0278e-05 -6.7218e-04 -5.3640e-05 -4.7816e-05 
0.0000e+00 0.0000e+00 0.0000e+00 0.0000e+00 0.0000e+00 0.0000e+00 0.0000e+00 0.0000e+00 0.0000e+00 0.0000e+00 0.0000e+00 0.0000e+00 0.0000e+00 0.0000e+00 0.0000e+00 0.0000e+00 0.0000e+00 0.0000e+00 0.0000e+00 0.0000e+00 0.0000e+00 0.0000e+00 0.0000e+00 0.0000e+00 0.0000e+00 0.0000e+00 0.0000e+00 0.0000e+00 0.0000e+00 0.0000e+00 
0.0000e+00 0.0000e+00 0.0000e+00 0.0000e+00 0.0000e+00 0.0000e+00 0.0000e+00 0.0000e+00 0.0000e+00 0.0000e+00 0.0000e+00 0.0000e+00 0.0000e+00 0.0000e+00 0.0000e+00 0.0000e+00 0.0000e+00 0.0000e+00 0.0000e+00 0.0000e+00 0.0000e+00 0.0000e+00 0.0000e+00 0.0000e+00 0.0000e+00 0.0000e+00 0.0000e+00 0.0000e+00 0.0000e+00 0.0000e+00 
3.3678e-03 4.1908e-05 -9.1283e-06 -5.5234e-04 2.8600e-05 -9.0004e-06 3.3396e-03 4.0177e-05 -1.4793e-06 -6.4059e-04 3.8774e-05 9.9646e-06 3.3667e-03 6.8783e-05 -9.7700e-06 -7.7760e-04 -6.2119e-06 -1.2266e-04 3.4339e-03 1.1178e-05 1.4828e-05 -7.7066e-04 1.0780e-04 1.2288e-04 3.3464e-03 -2.7907e-05 3.1607e-05 -6.4897e-04 4.5525e-05 3.0685e-05 
5.1024e-03 -1.1636e-05 3.6178e-06 1.2128e-03 -1.4131e-05 -9.6005e-06 5.0891e-03 -2.7558e-05 8.7114e-06 1.0796e-03 -1.8867e-05 3.7839e-05 5.0642e-03 -1.5722e-05 2.2672e-05 7.0659e-04 -4.4768e-05 -2.5288e-04 5.1434e-03 -4.5534e-05 -4.4075e-05 6.7812e-04 -4.9715e-05 2.2478e-04 5.0851e-03 -6.3494e-05 3.6571e-05 1.0988e-03 -2.4853e-05 3.3786e-05 
6.0905e-03 3.3860e-05 2.7537e-05 2.2097e-03 8.0249e-05 -1.6702e-05 6.0812e-03 6.1881e-05 -7.6875e-06 2.1217e-03 8.6499e-05 -1.0670e-06 6.0416e-03 7.1893e-05 2.0247e-05 1.9278e-03 6.4429e-05 2.0035e-05 6.1143e-03 1.1882e-05 -2.4796e-05 1.9398e-03 -7.9165e-05 -2.4589e-06 6.0538e-03 -1.7271e-05 -9.2778e-07 2.1493e-03 1.7963e-05 3.3030e-05 
6.5650e-03 -3.6024e-05 3.6173e-05 2.7518e-03 -4.0860e-06 4.9157e-05 6.5852e-03 1.8604e-05 -5.0460e-05 2.6440e-03 2.3650e-05 -6.2161e-05 6.5059e-03 -1.5127e-05 -2.3020e-05 2.6114e-03 2.2734e-05 4.3836e-06 6.6227e-03 -5.8156e-05 3.6240e-05 2.6261e-03 -1.4250e-04 1.3645e-05 6.5207e-03 -8.9245e-05 2.3665e-05 2.6853e-03 -8.1462e-05 3.0562e-05 
6.5638e-03 1.8969e-05 4.3522e-05 2.7671e-03 3.8154e-05 5.0027e-05 6.5534e-03 5.7710e-05 3.3909e-05 2.6780e-03 7.9047e-05 -7.9877e-05 6.5439e-03 6.9115e-05 -7.5169e-05 2.6985e-03 7.4091e-05 -1.3996e-05 6.5776e-03 1.5961e-05 -1.3362e-05 2.7176e-03 -5.5160e-05 4.6471e-05 6.5389e-03 -2.8491e-05 4.3959e-05 2.7137e-03 2.5165e-06 3.8956e-05 
6.0994e-03 -1.5022e-05 5.7346e-05 2.3131e-03 -4.0485e-05 6.2326e-05 6.1444e-03 -1.8836e-05 9.5940e-07 2.2263e-03 -1.2453e-05 -5.9688e-05 6.0944e-03 1.6594e-05 -9.0893e-05 2.2449e-03 -3.2619e-05 -1.2237e-05 6.1450e-03 -6.9790e-05 4.2701e-05 2.2662e-03 -7.0627e-05 2.9624e-05 6.0932e-03 -1.0058e-04 2.5507e-05 2.2600e-03 -4.0051e-05 2.2631e-05 
5.1007e-03 4.4762e-05 5.2856e-05 1.2648e-03 3.3046e-05 9.6075e-05 5.1136e-03 3.2659e-05 5.4630e-05 1.2894e-03 9.9410e-06 -6.0516e-05 5.0777e-03 5.8874e-05 -7.6181e-05 1.2218e-03 5.0987e-05 -1.5579e-05 5.0835e-03 1.9801e-05 2.6630e-05 1.2629e-03 2.7175e-05 1.8105e-05 5.0968e-03 -1.4257e-05 -2.5637e-05 1.3137e-03 1.1811e-05 2.4745e-06 
3.3200e-03 -4.8160e-05 2.5878e-05 -4.9087e-04 -3.6717e-05 3.2654e-05 3.3122e-03 -5.1378e-06 1.2145e-05 -4.8558e-04 -3.6052e-05 -1.0872e-05 3.2930e-03 -4.6282e-05 -5.0324e-05 -5.3224e-04 -1.8463e-05 -2.2702e-05 3.3107e-03 -1.4615e-05 2.9156e-05 -4.8961e-04 -7.1152e-05 2.2284e-05 3.2880e-03 -2.2730e-05 4.6031e-06 -4.4617e-04 -4.2532e-05 6.6903e-06 
0.0000e+00 0.0000e+00 0.0000e+00 0.0000e+00 0.0000e+00 0.0000e+00 0.0000e+00 0.0000e+00 0.0000e+00 0.0000e+00 0.0000e+00 0.0000e+00 0.0000e+00 0.0000e+00 0.0000e+00 0.0000e+00 0.0000e+00 0.0000e+00 0.0000e+00 0.0000e+00 0.0000e+00 0.0000e+00 0.0000e+00 0.0000e+00 0.0000e+00 0.0000e+00 0.0000e+00 0.0000e+00 0.0000e+00 0.0000e+00 
0.0000e+00 0.0000e+00 0.0000e+00 0.0000e+00 0.0000e+00 0.0000e+00 0.0000e+00 0.0000e+00 0.0000e+00 0.0000e+00 0.0000e+00 0.0000e+00 0.0000e+00 0.0000e+00 0.0000e+00 0.0000e+00 0.0000e+00 0.0000e+00 0.0000e+00 0.0000e+00 0.0000e+00 0.0000e+00 0.0000e+00 0.0000e+00 0.0000e+00 0.0000e+00 0.0000e+00 0.0000e+00 0.0000e+00 0.0000e+00 
3.4089e-03 1.5665e-05 -4.6270e-06 -4.9847e-04 2.4778e-05 -7.4131e-06 3.3911e-03 1.6711e-05 -1.0777e-05 -5.7012e-04 4.8624e-05 4.8342e-05 3.3709e-03 8.8911e-05 3.5287e-05 -9.6453e-04 -1.7580e-04 -7.5738e-05 3.6439e-03 1.3845e-05 4.4358e-06 -9.8179e-04 2.3765e-04 4.0392e-05 3.4070e-03 -1.0272e-05 -3.1283e-05 -5.7479e-04 8.0694e-05 -1.4575e-05 
5.2356e-03 -7.9640e-06 -2.9825e-05 1.3439e-03 -1.7525e-05 5.4300e-06 5.2304e-03 -1.7199e-05 9.7831e-06 1.2245e-03 -2.0254e-05 3.9438e-05 5.1926e-03 -1.4851e-05 6.7737e-05 7.1825e-04 8.3942e-05 8.3371e-05 5.3483e-03 -7.2498e-05 -2.9884e-05 7.3380e-04 -1.8298e-04 -1.1136e-04 5.2346e-03 -6.6283e-05 -2.5274e-05 1.2812e-03 -2.8326e-05 -2.5033e-05 
6.3435e-03 7.2386e-05 -2.0852e-06 2.4078e-03 8.3997e-05 -8.9229e-06 6.3653e-03 6.1624e-05 4.3793e-05 2.3047e-03 5.8603e-05 6.1066e-05 6.3326e-03 2.5278e-05 6.1717e-06 2.1147e-03 2.1817e-04 5.3946e-05 6.3535e-03 1.0514e-05 -6.2770e-05 2.1870e-03 -2.0119e-04 -7.3292e-05 6.3154e-03 -9.5180e-06 1.0945e-05 2.4052e-03 1.4262e-05 -3.9800e-05 
6.8733e-03 -2.8231e-05 2.8478e-05 3.0467e-03 3.1015e-05 -9.5423e-06 6.9219e-03 2.3554e-05 1.4475e-05 2.9294e-03 -1.5201e-05 4.5401e-05 6.8525e-03 -2.8771e-05 -7.4885e-06 2.9534e-03 -5.7101e-05 -1.3777e-05 6.8878e-03 -7.1123e-05 -3.9728e-05 3.0085e-03 -8.8569e-05 -3.5957e-05 6.8116e-03 -9.2051e-05 -1.5580e-06 3.0208e-03 -6.5259e-05 8.8483e-06 
6.8428e-03 5.0194e-05 6.4913e-05 3.1318e-03 3.0775e-05 2.3760e-05 6.9263e-03 8.5870e-05 9.6787e-06 3.0114e-03 6.3734e-05 -9.0124e-06 6.8856e-03 4.5434e-05 -2.9197e-06 3.0116e-03 6.0734e-05 -6.0997e-05 6.8710e-03 1.6071e-05 -8.3080e-05 3.0382e-03 -2.1263e-05 -1.7092e-06 6.7607e-03 -4.4446e-05 2.2741e-06 3.0670e-03 1.3591e-05 3.5375e-05 
6.3092e-03 -2.9625e-05 5.8677e-05 2.5695e-03 -1.6780e-05 2.6261e-05 6.4299e-03 -2.6052e-05 1.6749e-05 2.5272e-03 -1.2102e-05 -1.8154e-05 6.4215e-03 1.3453e-05 -1.5964e-05 2.4726e-03 -2.1047e-05 -9.2470e-05 6.1487e-03 -4.7167e-05 -2.7749e-04 2.4667e-03 -1.0522e-04 2.3358e-05 6.0681e-03 -7.6974e-05 2.1986e-04 2.5229e-03 -4.8944e-05 2.9597e-05 
5.2650e-03 2.5965e-05 1.8423e-06 1.2752e-03 5.0856e-05 2.0719e-04 5.3097e-03 3.8329e-05 3.4851e-05 1.3128e-03 4.5519e-05 -1.3628e-04 5.3132e-03 5.8241e-05 -1.8407e-05 1.2639e-03 5.8800e-05 1.2234e-04 5.2234e-03 3.8231e-05 -9.1001e-05 1.3518e-03 2.1514e-07 -8.7641e-05 5.1969e-03 -4.1453e-07 7.3407e-05 1.1802e-03 -1.7263e-06 -1.0354e-04 
3.4131e-03 -2.2032e-05 -5.7024e-06 -4.5176e-04 -5.1191e-05 4.4104e-05 3.3980e-03 -1.7510e-05 1.8555e-05 -4.4995e-04 -3.0432e-05 -4.5113e-06 3.3851e-03 -2.2319e-05 -1.9479e-05 -4.4090e-04 -5.0628e-05 -7.3344e-06 3.3915e-03 -2.2976e-05 -1.1037e-05 -4.6316e-04 -2.1095e-05 -4.1845e-05 3.3939e-03 -5.3604e-05 -5.4907e-06 -4.5848e-04 -6.1092e-05 -4.6314e-06 
0.0000e+00 0.0000e+00 0.0000e+00 0.0000e+00 0.0000e+00 0.0000e+00 0.0000e+00 0.0000e+00 0.0000e+00 0.0000e+00 0.0000e+00 0.0000e+00 0.0000e+00 0.0000e+00 0.0000e+00 0.0000e+00 0.0000e+00 0.0000e+00 0.0000e+00 0.0000e+00 0.0000e+00 0.0000e+00 0.0000e+00 0.0000e+00 0.0000e+00 0.0000e+00 0.0000e+00 0.0000e+00 0.0000e+00 0.0000e+00 
0.0000e+00 0.0000e+00 0.0000e+00 0.0000e+00 0.0000e+00 0.0000e+00 0.0000e+00 0.0000e+00 0.0000e+00 0.0000e+00 0.0000e+00 0.0000e+00 0.0000e+00 0.0000e+00 0.0000e+00 0.0000e+00 0.0000e+00 0.0000e+00 0.0000e+00 0.0000e+00 0.0000e+00 0.0000e+00 0.0000e+00 0.0000e+00 0.0000e+00 0.0000e+00 0.0000e+00 0.0000e+00 0.0000e+00 0.0000e+00 
3.3340e-03 1.0002e-05 3.8603e-06 -5.4406e-04 9.2999e-05 9.0166e-06 3.3173e-03 -1.0361e-05 7.3641e-06 -5.2177e-04 -8.1320e-05 1.8664e-05 3.2643e-03 1.0750e-04 2.7864e-05 -7.5194e-04 1.3217e-04 1.1499e-04 3.4975e-03 5.4709e-05 6.3301e-06 -7.7163e-04 -1.6210e-05 -1.0323e-04 3.3472e-03 9.8755e-06 -1.4074e-05 -5.5187e-04 5.0651e-05 -1.0074e-05 
5.1180e-03 -9.5676e-06 7.6834e-06 1.1922e-03 -2.5787e-05 9.1137e-06 4.9456e-03 1.2462e-05 1.1336e-05 1.1427e-03 -1.7181e-05 3.5453e-05 5.0840e-03 -5.5760e-05 4.3169e-05 9.0128e-04 5.8163e-05 1.8582e-04 5.1742e-03 -1.2533e-04 4.8512e-06 9.5111e-04 -1.6309e-04 -1.8255e-04 5.1253e-03 -2.1775e-05 -3.2877e-05 1.2213e-03 -4.3248e-05 -2.0310e-05 
6.1657e-03 9.9935e-05 1.1004e-05 2.2446e-03 6.5618e-05 9.5419e-06 6.2264e-03 6.5752e-05 1.1150e-05 1.9718e-03 5.4447e-05 3.1369e-05 6.1544e-03 -1.2949e-05 3.7170e-05 2.2773e-03 1.9176e-05 1.2902e-05 6.2242e-03 1.3387e-05 1.7611e-06 2.3750e-03 2.6457e-06 -1.2829e-05 6.1334e-03 -4.5404e-06 -3.3947e-05 2.2720e-03 3.4047e-05 -1.7693e-05 
6.6775e-03 1.8090e-05 1.3578e-05 2.8560e-03 5.3865e-05 1.2642e-05 6.8221e-03 2.6617e-06 9.5362e-06 2.7550e-03 -6.9955e-05 7.0775e-06 6.6908e-03 -4.6449e-05 1.6862e-05 2.8169e-03 -1.0040e-04 9.0451e-06 6.7030e-03 -9.2717e-05 -4.7727e-07 2.9078e-03 -7.1915e-05 -1.6283e-05 6.6039e-03 -9.3567e-05 -1.8612e-05 2.8747e-03 -1.8029e-05 1.7349e-06 
6.6431e-03 8.2365e-05 1.6092e-05 2.9261e-03 8.4742e-05 1.2074e-05 6.8214e-03 8.2683e-05 4.7743e-06 2.8967e-03 3.5290e-05 -8.4288e-06 6.7733e-03 1.5984e-05 -4.6391e-06 2.7471e-03 -2.2865e-05 3.1348e-06 6.4788e-03 -2.0413e-04 -4.0606e-06 2.8530e-03 2.3530e-05 -1.0314e-05 6.3388e-03 1.8843e-04 6.7734e-06 2.9462e-03 3.5628e-05 1.8407e-05 
6.1149e-03 -6.5070e-05 1.8674e-05 2.2367e-03 1.5322e-04 9.5242e-06 6.3426e-03 -3.1765e-05 4.4750e-07 2.2727e-03 -1.4341e-04 -8.8184e-06 6.3188e-03 2.1185e-05 -1.4936e-05 2.1139e-03 1.4848e-04 -1.0479e-05 5.7582e-03 -6.7569e-05 -2.1096e-06 2.2386e-03 -1.4795e-04 7.8652e-06 5.5874e-03 -4.9939e-06 2.2468e-05 2.1522e-03 -1.6885e-04 2.2842e-05 
5.1594e-03 -1.4552e-06 1.5070e-05 1.0196e-03 8.7144e-05 5.8896e-06 5.2497e-03 6.6300e-05 5.4635e-07 1.0618e-03 5.8544e-05 -5.1674e-06 5.2543e-03 6.3549e-05 -1.0896e-05 -8.5216e-04 3.8672e-05 7.0134e-05 4.8611e-03 2.7601e-04 3.6012e-06 1.1673e-03 -5.7544e-05 1.3210e-05 4.8250e-03 -2.1292e-04 1.9391e-05 7.0734e-04 -1.1936e-05 2.0897e-05 
3.4210e-03 9.5615e-05 7.1359e-06 -6.6571e-04 -2.3036e-04 1.5566e-06 3.3723e-03 -5.4749e-05 -9.5659e-07 -6.4920e-04 1.1411e-04 -1.1214e-06 3.3804e-03 -3.4746e-05 -2.3237e-06 -6.2380e-04 -2.3039e-04 -2.4560e-06 3.2963e-03 4.4085e-05 4.9632e-06 -5.7124e-04 5.8542e-05 1.1764e-05 3.3550e-03 -1.8123e-04 1.3418e-05 -7.7261e-04 7.7248e-05 1.2059e-05 
0.0000e+00 0.0000e+00 0.0000e+00 0.0000e+00 0.0000e+00 0.0000e+00 0.0000e+00 0.0000e+00 0.0000e+00 0.0000e+00 0.0000e+00 0.0000e+00 0.0000e+00 0.0000e+00 0.0000e+00 0.0000e+00 0.0000e+00 0.0000e+00 0.0000e+00 0.0000e+00 0.0000e+00 0.0000e+00 0.0000e+00 0.0000e+00 0.0000e+00 0.0000e+00 0.0000e+00 0.0000e+00 0.0000e+00 0.0000e+00 
0.0000e+00 0.0000e+00 0.0000e+00 0.0000e+00 0.0000e+00 0.0000e+00 0.0000e+00 0.0000e+00 0.0000e+00 0.0000e+00 0.0000e+00 0.0000e+00 0.0000e+00 0.0000e+00 0.0000e+00 0.0000e+00 0.0000e+00 0.0000e+00 0.0000e+00 0.0000e+00 0.0000e+00 0.0000e+00 0.0000e+00 0.0000e+00 0.0000e+00 0.0000e+00 0.0000e+00 0.0000e+00 0.0000e+00 0.0000e+00 
3.2615e-03 2.2666e-05 8.8343e-06 -6.2172e-04 2.1798e-05 8.0560e-06 3.2372e-03 8.5464e-06 1.8494e-05 -6.4151e-04 6.2884e-05 -1.4573e-05 3.2030e-03 6.4536e-05 -1.1056e-05 -7.1209e-04 -8.3165e-06 7.3330e-05 3.2619e-03 3.2796e-05 -2.2151e-05 -7.2948e-04 6.6056e-05 -7.6222e-05 3.2337e-03 9.2101e-06 -1.6484e-05 -6.4385e-04 6.1615e-05 -1.3404e-05 
4.8521e-03 -1.3081e-05 3.2343e-05 9.8374e-04 -2.9815e-05 2.2543e-06 4.8550e-03 -2.4620e-05 1.2694e-05 9.3901e-04 -2.1780e-05 1.6416e-05 4.8148e-03 -2.5345e-05 -1.7195e-05 8.9344e-04 -4.5949e-05 1.7418e-05 4.9256e-03 -7.0420e-05 4.5800e-06 9.1148e-04 -4.7993e-05 -3.2252e-05 4.8586e-03 -4.9358e-05 -3.8948e-05 9.9369e-04 -2.7628e-05 -1.8461e-05 
5.8028e-03 7.1302e-05 7.6903e-06 1.8769e-03 7.8961e-05 2.2145e-05 5.8399e-03 5.2865e-05 -2.5872e-05 1.8450e-03 2.8262e-05 -1.6709e-05 5.7854e-03 -3.0525e-07 4.8899e-05 1.8430e-03 6.3234e-05 7.9546e-06 5.8508e-03 1.6903e-05 3.3895e-05 1.9141e-03 -3.8050e-05 -3.0277e-05 5.7634e-03 1.3106e-05 -7.2511e-05 1.9410e-03 3.2643e-05 1.6864e-06 
6.2603e-03 -2.6142e-05 -1.7467e-05 2.4240e-03 3.2206e-05 1.5584e-05 6.3165e-03 1.5837e-05 -4.5433e-06 2.3527e-03 -5.3955e-05 -2.7953e-05 6.2506e-03 -6.5886e-05 2.8255e-05 2.3740e-03 -6.3509e-05 1.9714e-05 6.2733e-03 -7.3480e-05 8.7771e-06 2.4222e-03 -8.1347e-05 -1.8947e-05 6.2004e-03 -4.7744e-05 -2.9299e-05 2.4386e-03 -2.8263e-05 -1.4673e-05 
6.2233e-03 5.2958e-05 -4.7528e-05 2.5003e-03 3.3870e-05 -1.5016e-05 6.3144e-03 7.6716e-05 -6.9603e-06 2.3929e-03 4.2014e-05 6.6228e-06 6.2853e-03 9.3117e-06 -6.8072e-06 2.3877e-03 3.4084e-05 3.5873e-05 6.2388e-03 1.2713e-05 5.0091e-05 2.4177e-03 1.9291e-06 -2.9915e-05 6.1543e-03 -5.9499e-06 -1.0663e-05 2.4336e-03 2.9177e-05 -2.7342e-05 
5.7686e-03 -2.2711e-05 -4.2633e-05 2.0123e-03 -1.0177e-05 -1.0591e-05 5.8908e-03 -2.5039e-05 -1.5403e-05 1.9730e-03 -1.1052e-05 6.8684e-07 5.8881e-03 7.1902e-06 -1.7686e-06 1.9264e-03 -3.0661e-05 6.3901e-05 5.6180e-03 -4.3658e-05 2.4649e-04 1.9239e-03 -9.9927e-05 -3.7411e-05 5.5292e-03 -7.5061e-05 -2.2016e-04 1.9534e-03 -4.9830e-05 -2.1159e-05 
4.8968e-03 2.7933e-05 6.4524e-06 8.7819e-04 5.0148e-05 -1.9858e-04 4.9355e-03 3.5940e-05 -3.0113e-05 9.1555e-04 4.6163e-05 1.2609e-04 4.9446e-03 5.6483e-05 -2.2900e-06 8.8613e-04 5.7968e-05 -1.4389e-04 4.8591e-03 4.0188e-05 7.5123e-05 9.6027e-04 1.7406e-06 8.4315e-05 4.8267e-03 -4.9899e-06 -6.5582e-05 7.7932e-04 -3.4702e-06 1.0609e-04 
3.2872e-03 -2.3880e-05 -1.3295e-06 -6.0947e-04 -5.4509e-05 -4.2011e-05 3.2712e-03 -1.8742e-05 -2.0059e-05 -5.9848e-04 -2.6605e-05 -3.9919e-06 3.2591e-03 -1.1873e-05 6.6347e-06 -5.8715e-04 -4.6859e-05 -1.8860e-06 3.2723e-03 -2.7627e-05 4.3666e-06 -6.1582e-04 -1.2727e-05 3.9523e-05 3.2624e-03 -5.1327e-05 -2.5668e-06 -6.1801e-04 -5.6738e-05 -1.0174e-05 
0.0000e+00 0.0000e+00 0.0000e+00 0.0000e+00 0.0000e+00 0.0000e+00 0.0000e+00 0.0000e+00 0.0000e+00 0.0000e+00 0.0000e+00 0.0000e+00 0.0000e+00 0.0000e+00 0.0000e+00 0.0000e+00 0.0000e+00 0.0000e+00 0.0000e+00 0.0000e+00 0.0000e+00 0.0000e+00 0.0000e+00 0.0000e+00 0.0000e+00 0.0000e+00 0.0000e+00 0.0000e+00 0.0000e+00 0.0000e+00 
0.0000e+00 0.0000e+00 0.0000e+00 0.0000e+00 0.0000e+00 0.0000e+00 0.0000e+00 0.0000e+00 0.0000e+00 0.0000e+00 0.0000e+00 0.0000e+00 0.0000e+00 0.0000e+00 0.0000e+00 0.0000e+00 0.0000e+00 0.0000e+00 0.0000e+00 0.0000e+00 0.0000e+00 0.0000e+00 0.0000e+00 0.0000e+00 0.0000e+00 0.0000e+00 0.0000e+00 0.0000e+00 0.0000e+00 0.0000e+00 
3.0364e-03 2.6765e-05 4.1283e-06 -8.4945e-04 2.2384e-05 1.2749e-05 3.0213e-03 3.1064e-05 -5.1056e-06 -8.5883e-04 6.2730e-05 -1.2688e-05 3.0009e-03 4.0332e-07 2.6353e-05 -8.3396e-04 3.3431e-05 4.4611e-05 3.0170e-03 1.7948e-05 1.4353e-05 -8.3465e-04 2.5434e-05 -2.6150e-05 2.9837e-03 4.2581e-05 -1.8660e-05 -8.6604e-04 4.0443e-05 1.8086e-06 
4.2477e-03 -1.9786e-05 3.5869e-05 4.0802e-04 -1.4943e-05 2.0033e-05 4.2839e-03 -4.2776e-05 5.3532e-06 3.7270e-04 -3.3306e-05 -3.4498e-05 4.2232e-03 -1.9168e-05 -3.5285e-05 3.7356e-04 -4.4042e-05 1.0885e-04 4.2638e-03 -3.8259e-05 2.7163e-05 3.5290e-04 -3.7333e-05 -7.5495e-05 4.2402e-03 -4.4118e-05 -6.2786e-07 3.8102e-04 -2.4651e-05 3.0063e-06 
4.9591e-03 3.8624e-05 -1.1776e-05 1.0613e-03 6.6312e-05 3.0534e-05 4.9515e-03 3.9928e-05 1.2946e-05 1.0777e-03 1.2073e-05 -3.4683e-05 4.9382e-03 3.2378e-05 -2.2808e-05 1.0501e-03 1.5020e-05 1.6448e-05 4.9529e-03 1.4742e-05 3.2757e-05 1.0679e-03 2.2372e-05 -1.0989e-05 4.9182e-03 1.9058e-05 1.6176e-05 1.0891e-03 3.1569e-05 8.0179e-06 
5.2670e-03 -2.2964e-05 -1.0463e-05 1.4312e-03 -1.3893e-05 -3.0550e-05 5.2626e-03 4.7433e-06 -2.8794e-06 1.3911e-03 -1.7097e-05 -1.1157e-05 5.2433e-03 -6.8771e-05 6.9310e-06 1.4020e-03 -4.9625e-05 5.1779e-05 5.2671e-03 -5.1578e-05 2.3180e-05 1.4101e-03 -5.3515e-05 1.0684e-06 5.2218e-03 -3.8890e-05 -1.0702e-06 1.4164e-03 -3.6351e-05 -5.0174e-06 
5.2582e-03 3.1975e-05 3.4446e-08 1.4404e-03 4.7090e-05 -2.4513e-05 5.2615e-03 4.8186e-05 -3.5561e-05 1.3909e-03 4.2834e-05 7.3415e-06 5.2409e-03 2.4465e-05 4.7713e-05 1.4103e-03 2.2704e-05 4.1008e-05 5.2610e-03 1.2660e-05 2.4780e-05 1.4076e-03 -1.2872e-05 -8.6593e-06 5.2155e-03 8.1988e-06 -2.2475e-05 1.4134e-03 2.3290e-05 -1.2895e-05 
4.9496e-03 -1.0040e-05 -9.4614e-06 1.1332e-03 -2.2881e-05 -1.9298e-05 4.9471e-03 -1.4959e-05 -4.1183e-05 1.0783e-03 -2.1930e-05 -4.3398e-06 4.9505e-03 -1.6608e-05 3.6367e-05 1.0957e-03 -3.4453e-05 3.5483e-05 4.9436e-03 -5.7154e-05 3.2196e-05 1.0993e-03 -6.1393e-05 3.2338e-06 4.9189e-03 -7.6889e-05 2.0015e-06 1.0894e-03 -4.3221e-05 -5.0848e-06 
4.2845e-03 4.0092e-05 -2.2269e-05 4.0773e-04 2.3818e-05 -4.3572e-05 4.2690e-03 3.1856e-05 -1.9542e-05 4.1032e-04 3.6500e-05 -7.2698e-06 4.2676e-03 4.1943e-05 1.7672e-05 4.1010e-04 3.0905e-05 2.6899e-05 4.2758e-03 2.7722e-05 2.5647e-05 3.9244e-04 1.7738e-05 3.7961e-05 4.2499e-03 -6.8915e-06 2.3110e-05 4.4286e-04 1.2569e-05 -2.0170e-06 
3.0280e-03 -4.6579e-05 -1.6753e-05 -8.2970e-04 -3.3584e-05 -5.0803e-06 3.0168e-03 -1.2093e-05 -1.9792e-06 -8.4140e-04 -3.4625e-05 -7.8913e-06 3.0037e-03 -2.1682e-05 5.7332e-06 -8.4023e-04 -2.1600e-05 2.1404e-05 3.0224e-03 -2.3056e-05 1.4716e-05 -8.4212e-04 -5.6684e-05 5.6790e-06 3.0016e-03 -1.9027e-05 1.9558e-05 -8.1063e-04 -4.0326e-05 7.2198e-06 
0.0000e+00 0.0000e+00 0.0000e+00 0.0000e+00 0.0000e+00 0.0000e+00 0.0000e+00 0.0000e+00 0.0000e+00 0.0000e+00 0.0000e+00 0.0000e+00 0.0000e+00 0.0000e+00 0.0000e+00 0.0000e+00 0.0000e+00 0.0000e+00 0.0000e+00 0.0000e+00 0.0000e+00 0.0000e+00 0.0000e+00 0.0000e+00 0.0000e+00 0.0000e+00 0.0000e+00 0.0000e+00 0.0000e+00 0.0000e+00 
0.0000e+00 0.0000e+00 0.0000e+00 0.0000e+00 0.0000e+00 0.0000e+00 0.0000e+00 0.0000e+00 0.0000e+00 0.0000e+00 0.0000e+00 0.0000e+00 0.0000e+00 0.0000e+00 0.0000e+00 0.0000e+00 0.0000e+00 0.0000e+00 0.0000e+00 0.0000e+00 0.0000e+00 0.0000e+00 0.0000e+00 0.0000e+00 0.0000e+00 0.0000e+00 0.0000e+00 0.0000e+00 0.0000e+00 0.0000e+00 
2.4923e-03 2.9036e-05 3.5266e-06 -1.3682e-03 3.5584e-05 -8.0446e-06 2.4901e-03 2.7869e-05 -5.7542e-06 -1.3579e-03 3.3682e-05 -5.9849e-06 2.4759e-03 8.1915e-06 7.7542e-06 -1.3247e-03 6.1711e-05 -5.6112e-06 2.4531e-03 2.6238e-05 -2.2659e-06 -1.3371e-03 5.3281e-07 -5.9708e-06 2.4604e-03 4.5017e-05 -6.4099e-06 -1.3641e-03 2.5388e-05 1.7750e-06 
3.0242e-03 -2.9670e-05 5.3650e-06 -8.3850e-04 -2.3153e-05 -1.8065e-05 3.0161e-03 -2.4833e-05 -7.0764e-06 -8.3765e-04 -3.5884e-05 -1.3372e-05 3.0145e-03 -3.7333e-05 2.6811e-05 -7.9568e-04 -4.2324e-05 -2.0952e-05 2.9731e-03 -3.0197e-05 5.9969e-06 -8.1178e-04 -2.1414e-05 1.5219e-05 2.9949e-03 -2.6681e-05 -1.1395e-05 -8.4550e-04 -2.6148e-05 -9.5714e-06 
3.2839e-03 3.1227e-05 -9.7313e-06 -5.6364e-04 3.4870e-05 -2.4347e-05 3.2732e-03 3.5793e-05 -1.2030e-05 -5.8240e-04 2.7088e-05 -1.3442e-05 3.2726e-03 2.9538e-05 1.7438e-05 -5.4328e-04 1.9920e-05 4.6455e-06 3.2670e-03 2.2324e-05 2.7024e-05 -5.6196e-04 3.6070e-05 -1.0393e-06 3.2593e-03 2.5681e-05 -5.9300e-06 -5.7844e-04 2.8262e-05 -1.8066e-05 
3.4039e-03 -2.0155e-05 -6.6906e-06 -4.4412e-04 -2.3480e-05 -2.2869e-05 3.3891e-03 -2.5722e-05 -1.0128e-05 -4.5719e-04 -2.2292e-05 -2.0745e-05 3.3981e-03 -2.2182e-05 1.1529e-05 -4.4004e-04 -4.2744e-05 1.9007e-05 3.3970e-03 -4.1816e-05 3.8150e-05 -4.4751e-04 -3.4400e-05 -1.2107e-05 3.3722e-03 -4.5263e-05 -1.2045e-05 -4.5236e-04 -3.2247e-05 -2.1469e-05 
3.3987e-03 3.5836e-05 -1.9794e-05 -4.4978e-04 3.7896e-05 -2.1407e-05 3.3902e-03 3.5703e-05 -3.8851e-06 -4.4902e-04 3.7642e-05 -2.7598e-05 3.3864e-03 3.0052e-05 1.6433e-05 -4.4887e-04 1.6061e-05 2.6114e-05 3.4039e-03 1.7560e-05 3.1459e-05 -4.5129e-04 1.3410e-05 -1.1137e-05 3.3771e-03 1.2279e-05 -5.8059e-06 -4.4051e-04 2.7029e-05 -2.5549e-05 
3.2961e-03 -2.9914e-05 -1.0640e-05 -5.6204e-04 -2.4592e-05 -2.2921e-05 3.2734e-03 -1.6481e-05 7.3870e-06 -5.7351e-04 -2.3394e-05 4.2842e-08 3.2732e-03 -3.0112e-05 1.5930e-05 -5.6419e-04 -3.0944e-05 1.5012e-05 3.2884e-03 -3.9012e-05 2.1668e-05 -5.6774e-04 -4.7528e-05 -1.9781e-05 3.2646e-03 -4.5712e-05 -2.1511e-05 -5.5879e-04 -3.7586e-05 -2.9795e-05 