<?xml version="1.0"?>
<!-- openLBMflow v1.0.1, www.lbmflow.com -->
<VTKFile type="ImageData" version="0.1" byte_order="LittleEndian">
  <ImageData WholeExtent="0 9 0 9 0 9" Origin="0 0 0" Spacing="1 1 1">
  <Piece Extent="0 9 0 9 0 9">
    <PointData Scalars="scalars">
      <DataArray type="Float32" Name="Velocity" NumberOfComponents="3" format="ascii">
0.0000e+00 0.0000e+00 0.0000e+00 0.0000e+00 0.0000e+00 0.0000e+00 0.0000e+00 0.0000e+00 0.0000e+00 0.0000e+00 0.0000e+00 0.0000e+00 0.0000e+00 0.0000e+00 0.0000e+00 0.0000e+00 0.0000e+00 0.0000e+00 0.0000e+00 0.0000e+00 0.0000e+00 0.0000e+00 0.0000e+00 0.0000e+00 0.0000e+00 0.0000e+00 0.0000e+00 0.0000e+00 0.0000e+00 0.0000e+00 
0.0000e+00 0.0000e+00 0.0000e+00 0.0000e+00 0.0000e+00 0.0000e+00 0.0000e+00 0.0000e+00 0.0000e+00 0.0000e+00 0.0000e+00 0.0000e+00 0.0000e+00 0.0000e+00 0.0000e+00 0.0000e+00 0.0000e+00 0.0000e+00 0.0000e+00 0.0000e+00 0.0000e+00 0.0000e+00 0.0000e+00 0.0000e+00 0.0000e+00 0.0000e+00 0.0000e+00 0.0000e+00 0.0000e+00 0.0000e+00 
0.0000e+00 0.0000e+00 0.0000e+00 0.0000e+00 0.0000e+00 0.0000e+00 0.0000e+00 0.0000e+00 0.0000e+00 0.0000e+00 0.0000e+00 0.0000e+00 0.0000e+00 0.0000e+00 0.0000e+00 0.0000e+00 0.0000e+00 0.0000e+00 0.0000e+00 0.0000e+00 0.0000e+00 0.0000e+00 0.0000e+00 0.0000e+00 0.0000e+00 0.0000e+00 0.0000e+00 0.0000e+00 0.0000e+00 0.0000e+00 
0.0000e+00 0.0000e+00 0.0000e+00 0.0000e+00 0.0000e+00 0.0000e+00 0.0000e+00 0.0000e+00 0.0000e+00 0.0000e+00 0.0000e+00 0.0000e+00 0.0000e+00 0.0000e+00 0.0000e+00 0.0000e+00 0.0000e+00 0.0000e+00 0.0000e+00 0.0000e+00 0.0000e+00 0.0000e+00 0.0000e+00 0.0000e+00 0.0000e+00 0.0000e+00 0.0000e+00 0.0000e+00 0.0000e+00 0.0000e+00 
0.0000e+00 0.0000e+00 0.0000e+00 0.0000e+00 0.0000e+00 0.0000e+00 0.0000e+00 0.0000e+00 0.0000e+00 0.0000e+00 0.0000e+00 0.0000e+00 0.0000e+00 0.0000e+00 0.0000e+00 0.0000e+00 0.0000e+00 0.0000e+00 0.0000e+00 0.0000e+00 0.0000e+00 0.0000e+00 0.0000e+00 0.0000e+00 0.0000e+00 0.0000e+00 0.0000e+00 0.0000e+00 0.0000e+00 0.0000e+00 
0.0000e+00 0.0000e+00 0.0000e+00 0.0000e+00 0.0000e+00 0.0000e+00 0.0000e+00 0.0000e+00 0.0000e+00 0.0000e+00 0.0000e+00 0.0000e+00 0.0000e+00 0.0000e+00 0.0000e+00 0.0000e+00 0.0000e+00 0.0000e+00 0.0000e+00 0.0000e+00 0.0000e+00 0.0000e+00 0.0000e+00 0.0000e+00 0.0000e+00 0.0000e+00 0.0000e+00 0.0000e+00 0.0000e+00 0.0000e+00 
0.0000e+00 0.0000e+00 0.0000e+00 0.0000e+00 0.0000e+00 0.0000e+00 0.0000e+00 0.0000e+00 0.0000e+00 0.0000e+00 0.0000e+00 0.0000e+00 0.0000e+00 0.0000e+00 0.0000e+00 0.0000e+00 0.0000e+00 0.0000e+00 0.0000e+00 0.0000e+00 0.0000e+00 0.0000e+00 0.0000e+00 0.0000e+00 0.0000e+00 0.0000e+00 0.0000e+00 0.0000e+00 0.0000e+00 0.0000e+00 
0.0000e+00 0.0000e+00 0.0000e+00 0.0000e+00 0.0000e+00 0.0000e+00 0.0000e+00 0.0000e+00 0.0000e+00 0.0000e+00 0.0000e+00 0.0000e+00 0.0000e+00 0.0000e+00 0.0000e+00 0.0000e+00 0.0000e+00 0.0000e+00 0.0000e+00 0.0000e+00 0.0000e+00 0.0000e+00 0.0000e+00 0.0000e+00 0.0000e+00 0.0000e+00 0.0000e+00 0.0000e+00 0.0000e+00 0.0000e+00 
0.0000e+00 0.0000e+00 0.0000e+00 0.0000e+00 0.0000e+00 0.0000e+00 0.0000e+00 0.0000e+00 0.0000e+00 0.0000e+00 0.0000e+00 0.0000e+00 0.0000e+00 0.0000e+00 0.0000e+00 0.0000e+00 0.0000e+00 0.0000e+00 0.0000e+00 0.0000e+00 0.0000e+00 0.0000e+00 0.0000e+00 0.0000e+00 0.0000e+00 0.0000e+00 0.0000e+00 0.0000e+00 0.0000e+00 0.0000e+00 
0.0000e+00 0.0000e+00 0.0000e+00 0.0000e+00 0.0000e+00 0.0000e+00 0.0000e+00 0.0000e+00 0.0000e+00 0.0000e+00 0.0000e+00 0.0000e+00 0.0000e+00 0.0000e+00 0.0000e+00 0.0000e+00 0.0000e+00 0.0000e+00 0.0000e+00 0.0000e+00 0.0000e+00 0.0000e+00 0.0000e+00 0.0000e+00 0.0000e+00 0.0000e+00 0.0000e+00 0.0000e+00 0.0000e+00 0.0000e+00 
0.0000e+00 0.0000e+00 0.0000e+00 0.0000e+00 0.0000e+00 0.0000e+00 0.0000e+00 0.0000e+00 0.0000e+00 0.0000e+00 0.0000e+00 0.0000e+00 0.0000e+00 0.0000e+00 0.0000e+00 0.0000e+00 0.0000e+00 0.0000e+00 0.0000e+00 0.0000e+00 0.0000e+00 0.0000e+00 0.0000e+00 0.0000e+00 0.0000e+00 0.0000e+00 0.0000e+00 0.0000e+00 0.0000e+00 0.0000e+00 
2.9389e-03 2.1219e-04 2.8057e-05 -1.4146e-03 1.8238e-04 -5.5804e-06 2.7589e-03 3.9246e-05 5.2522e-06 -1.4688e-03 -1.4750e-04 -2.0572e-05 2.9632e-03 -8.1032e-06 4.3185e-06 -1.7578e-03 8.6658e-05 -1.1493e-05 2.8967e-03 8.2693e-05 -1.2621e-05 -1.6286e-03 1.3057e-04 1.6726e-05 2.7923e-03 -1.2173e-04 -4.1218e-05 -1.6212e-03 -2.9380e-05 -2.7150e-05 
3.3741e-03 -2.1133e-05 1.0770e-04 -6.6312e-04 -1.2619e-04 6.3206e-06 3.2750e-03 -5.4812e-05 5.3612e-06 -6.3693e-04 1.4585e-04 1.5645e-05 3.3983e-03 -7.5483e-05 -4.7263e-05 -9.1903e-04 -1.0910e-04 -8.1572e-06 3.3575e-03 -6.8033e-05 -9.3809e-06 -8.9048e-04 -1.2534e-04 3.3294e-05 3.3677e-03 4.0103e-05 -1.6073e-05 -7.8740e-04 2.4443e-06 -2.0231e-05 
3.7968e-03 -3.7622e-05 6.0259e-05 -5.0317e-04 6.7702e-05 9.8310e-05 3.8162e-03 -4.9785e-05 -6.7500e-05 -2.7681e-04 1.4440e-04 3.8734e-05 3.4531e-03 7.8929e-05 -3.4785e-05 -2.9339e-04 8.6791e-05 1.2806e-05 3.4214e-03 2.6475e-05 -2.5398e-05 -3.1709e-04 -2.3784e-05 -1.4820e-05 3.6549e-03 1.3952e-04 9.7754e-06 -6.2050e-04 -1.1595e-04 -9.6555e-05 
4.2520e-03 -1.2507e-05 9.7546e-06 -5.4035e-04 -8.6504e-05 1.7078e-04 3.7765e-03 -4.8193e-05 -4.9248e-05 -5.8817e-05 -7.8140e-05 -2.8261e-05 3.6451e-03 -4.7500e-05 -5.2965e-06 -6.8597e-05 2.1431e-05 1.0310e-04 3.4079e-03 -5.4989e-05 -6.1540e-05 -3.4179e-06 -4.1005e-05 -1.5349e-05 3.7142e-03 -3.2682e-05 1.1667e-04 -5.3668e-04 -4.6437e-06 -1.6987e-04 
3.9401e-03 9.5243e-05 3.2998e-05 -5.5762e-04 -9.1386e-05 4.2499e-05 3.9744e-03 1.0964e-04 -8.2609e-05 -4.1277e-04 4.5015e-05 3.1897e-05 3.7173e-03 -8.0266e-05 -6.5483e-05 -1.8295e-04 -2.6710e-05 6.5741e-05 3.5040e-03 7.9826e-05 -5.9238e-05 -1.3379e-04 7.1082e-05 -3.9923e-05 3.7924e-03 -4.1421e-05 1.1524e-04 -4.5339e-04 1.6968e-04 1.6070e-05 
3.8912e-03 5.5998e-06 4.1212e-05 -8.7228e-04 2.9089e-05 -3.0484e-05 3.9740e-03 -4.6012e-05 -5.3063e-05 -7.8164e-04 -5.9241e-05 1.0148e-04 3.7088e-03 4.8585e-06 -5.9683e-05 -5.4761e-04 -2.7044e-05 -6.2288e-06 3.6151e-03 1.0678e-05 -4.2932e-06 -6.1609e-04 2.0349e-05 -3.7423e-05 3.7785e-03 -8.8659e-05 2.3259e-05 -6.4900e-04 -7.5343e-05 1.8988e-05 
3.6201e-03 -2.5380e-05 -6.0771e-06 -1.2327e-03 2.7935e-05 -3.6041e-05 3.6812e-03 6.1940e-05 -2.7370e-05 -1.1539e-03 -1.4620e-05 7.4854e-05 3.5100e-03 3.3135e-05 6.9412e-07 -1.0671e-03 3.7616e-06 1.7241e-06 3.4402e-03 7.3650e-06 1.4540e-06 -1.0856e-03 7.0776e-05 9.5349e-07 3.4898e-03 8.4808e-05 -1.1309e-05 -1.1109e-03 8.5730e-05 2.7227e-06 
2.9386e-03 -1.3379e-05 -3.1481e-05 -1.7199e-03 1.0013e-04 -4.6540e-06 2.8851e-03 1.1616e-05 1.6312e-05 -1.7313e-03 -1.4261e-04 1.2356e-05 2.9246e-03 -2.6887e-05 -8.1123e-06 -1.6948e-03 -3.2453e-05 -1.0383e-06 2.8806e-03 -3.5494e-05 -9.0809e-06 -1.6813e-03 -6.1566e-05 -1.5224e-05 2.9147e-03 -6.6203e-05 -8.4757e-07 -1.7219e-03 -3.1069e-05 1.1548e-06 
0.0000e+00 0.0000e+00 0.0000e+00 0.0000e+00 0.0000e+00 0.0000e+00 0.0000e+00 0.0000e+00 0.0000e+00 0.0000e+00 0.0000e+00 0.0000e+00 0.0000e+00 0.0000e+00 0.0000e+00 0.0000e+00 0.0000e+00 0.0000e+00 0.0000e+00 0.0000e+00 0.0000e+00 0.0000e+00 0.0000e+00 0.0000e+00 0.0000e+00 0.0000e+00 0.0000e+00 0.0000e+00 0.0000e+00 0.0000e+00 
0.0000e+00 0.0000e+00 0.0000e+00 0.0000e+00 0.0000e+00 0.0000e+00 0.0000e+00 0.0000e+00 0.0000e+00 0.0000e+00 0.0000e+00 0.0000e+00 0.0000e+00 0.0000e+00 0.0000e+00 0.0000e+00 0.0000e+00 0.0000e+00 0.0000e+00 0.0000e+00 0.0000e+00 0.0000e+00 0.0000e+00 0.0000e+00 0.0000e+00 0.0000e+00 0.0000e+00 0.0000e+00 0.0000e+00 0.0000e+00 
3.4917e-03 1.2108e-05 1.8929e-06 -1.0843e-03 6.3409e-05 -2.8921e-05 3.5133e-03 9.7105e-05 2.1049e-05 -1.1492e-03 2.4835e-05 8.3094e-05 3.5296e-03 4.0081e-05 -1.9175e-05 -1.2281e-03 7.6992e-05 -3.0591e-05 3.5034e-03 1.0060e-06 -9.1595e-07 -1.1542e-03 5.2187e-05 -3.4644e-05 3.5092e-03 1.5273e-05 9.6979e-06 -1.1333e-03 1.2458e-05 3.4302e-05 
4.8609e-03 -2.3967e-05 -7.7664e-05 4.8910e-04 -4.7723e-05 -6.1004e-05 4.9147e-03 5.0502e-07 4.1709e-05 4.1691e-04 4.3251e-05 1.3894e-04 4.8687e-03 -3.6506e-05 -7.7925e-06 2.5320e-04 -3.9470e-05 -2.9470e-05 4.8001e-03 -6.6390e-05 -1.8785e-05 3.2659e-04 -1.0638e-04 -1.7095e-05 4.8353e-03 -6.1441e-05 4.1868e-05 3.3192e-04 -2.1852e-05 -3.0208e-05 
5.6512e-03 4.7266e-05 8.1716e-06 1.1439e-03 5.7643e-05 4.9424e-05 5.6868e-03 2.1001e-05 5.1562e-05 1.2152e-03 3.6468e-05 -7.1328e-05 5.5826e-03 3.2551e-05 -1.3789e-05 1.2960e-03 4.1727e-05 -4.0849e-05 5.5094e-03 3.4588e-05 -1.4821e-05 1.2683e-03 8.7233e-06 5.9099e-05 5.6245e-03 2.7820e-05 -4.7610e-05 1.1670e-03 3.3356e-05 4.8002e-06 
6.0397e-03 -1.9151e-05 3.8109e-05 1.5221e-03 -7.1988e-05 -6.2331e-05 6.0184e-03 -7.7122e-05 1.4823e-04 1.6618e-03 -6.2664e-05 6.3032e-05 5.8973e-03 -4.4780e-05 -4.7982e-05 1.7662e-03 -1.3811e-05 -1.3767e-04 5.8183e-03 -3.0077e-05 -2.6000e-06 1.7415e-03 -2.4133e-05 6.6582e-05 5.9840e-03 -2.8615e-05 -1.2805e-04 1.5660e-03 -2.8232e-05 1.1152e-04 
6.0247e-03 5.1509e-05 1.0575e-05 1.5167e-03 4.3191e-05 1.3390e-04 6.0209e-03 -1.7169e-06 1.0045e-04 1.5653e-03 -1.7447e-05 4.0022e-05 5.9063e-03 7.9682e-06 4.1137e-05 1.6881e-03 2.1581e-05 -1.0545e-04 5.8153e-03 6.8810e-05 -1.4247e-05 1.7021e-03 6.9748e-05 4.3049e-05 5.9629e-03 5.2608e-05 -8.4315e-05 1.6193e-03 5.8355e-05 -4.5251e-05 
5.6793e-03 -7.3421e-06 -5.4221e-05 1.0254e-03 3.1003e-05 1.1452e-04 5.6458e-03 -5.4505e-05 1.1031e-04 1.0932e-03 -1.0212e-04 1.9558e-05 5.5842e-03 -5.2793e-05 5.4538e-05 1.1539e-03 -7.3275e-05 -3.7316e-05 5.5204e-03 -3.4721e-05 -6.5679e-05 1.1626e-03 1.6928e-06 3.1521e-06 5.6328e-03 -2.8047e-06 -1.6511e-05 1.1341e-03 -2.1354e-05 -4.3374e-05 
4.8995e-03 3.5623e-05 -2.3810e-05 2.4117e-04 4.9305e-05 4.4110e-05 4.8281e-03 6.5749e-05 7.6862e-05 2.3550e-04 1.7361e-05 2.5033e-05 4.8442e-03 7.6147e-06 2.8965e-05 2.9299e-04 -8.5564e-06 -1.2167e-05 4.7829e-03 2.5090e-05 -4.5396e-05 2.8007e-04 7.3500e-05 -3.6160e-05 4.8361e-03 7.2671e-05 -3.4545e-05 2.8343e-04 5.3779e-05 -1.0471e-05 
3.4476e-03 -1.9029e-05 1.7181e-05 -1.0832e-03 -6.5772e-05 1.3758e-06 3.3952e-03 -2.4755e-05 1.3800e-05 -1.1081e-03 -1.6969e-05 5.3697e-05 3.4177e-03 -3.3252e-05 2.2576e-05 -1.0942e-03 -4.6920e-05 3.6951e-06 3.4071e-03 -1.8611e-05 2.1000e-06 -1.1116e-03 -3.2234e-05 -1.8555e-05 3.4259e-03 -2.9109e-05 -3.4642e-05 -1.1002e-03 -6.4637e-05 -2.2622e-05 
0.0000e+00 0.0000e+00 0.0000e+00 0.0000e+00 0.0000e+00 0.0000e+00 0.0000e+00 0.0000e+00 0.0000e+00 0.0000e+00 0.0000e+00 0.0000e+00 0.0000e+00 0.0000e+00 0.0000e+00 0.0000e+00 0.0000e+00 0.0000e+00 0.0000e+00 0.0000e+00 0.0000e+00 0.0000e+00 0.0000e+00 0.0000e+00 0.0000e+00 0.0000e+00 0.0000e+00 0.0000e+00 0.0000e+00 0.0000e+00 
0.0000e+00 0.0000e+00 0.0000e+00 0.0000e+00 0.0000e+00 0.0000e+00 0.0000e+00 0.0000e+00 0.0000e+00 0.0000e+00 0.0000e+00 0.0000e+00 0.0000e+00 0.0000e+00 0.0000e+00 0.0000e+00 0.0000e+00 0.0000e+00 0.0000e+00 0.0000e+00 0.0000e+00 0.0000e+00 0.0000e+00 0.0000e+00 0.0000e+00 0.0000e+00 0.0000e+00 0.0000e+00 0.0000e+00 0.0000e+00 
3.7730e-03 -1.3191e-05 3.0457e-05 -9.4023e-04 6.5537e-05 2.2181e-05 3.7733e-03 6.8004e-05 -9.0242e-06 -9.8264e-04 3.3605e-05 -2.5515e-05 3.7792e-03 4.7499e-05 -2.6608e-05 -1.0206e-03 4.2858e-05 -5.6951e-06 3.7929e-03 -7.6837e-07 2.8157e-05 -1.0133e-03 2.3785e-05 2.7504e-05 3.8032e-03 4.0316e-05 -2.7038e-05 -9.5990e-04 6.1226e-05 -1.8355e-05 
5.5866e-03 -1.7672e-05 5.4941e-05 9.1120e-04 -8.6096e-06 6.5648e-05 5.5614e-03 -5.9842e-06 5.5667e-06 8.2939e-04 -1.6927e-05 -1.6161e-05 5.5878e-03 -3.2467e-05 -3.5909e-05 7.2331e-04 -3.3189e-05 -1.3857e-04 5.5475e-03 -7.1449e-05 -3.4552e-06 7.5821e-04 -1.1163e-04 6.3250e-05 5.5739e-03 -6.8264e-05 -3.4956e-05 8.1771e-04 -1.0733e-05 2.4389e-05 
6.5347e-03 6.2624e-05 9.7399e-05 1.9454e-03 -7.7002e-06 8.2775e-05 6.5923e-03 5.6336e-05 -3.4850e-06 1.9400e-03 7.2889e-05 -3.4044e-05 6.6009e-03 2.6077e-05 -3.9718e-05 1.9458e-03 2.8295e-05 -4.9282e-05 6.5279e-03 2.0533e-05 -1.0348e-04 1.9299e-03 1.5503e-05 -5.0560e-05 6.5990e-03 -6.1012e-06 3.1361e-05 1.9434e-03 7.4113e-05 4.9786e-05 
6.9995e-03 -3.4853e-05 3.4364e-05 2.4909e-03 -3.4837e-05 7.8887e-05 7.1164e-03 -6.8327e-05 2.8028e-05 2.4757e-03 -8.0279e-05 -6.9765e-05 7.0156e-03 -3.9413e-05 -2.6532e-05 2.5264e-03 -3.8595e-06 4.0602e-07 7.0503e-03 -2.9920e-05 -6.8470e-05 2.5000e-03 -1.8074e-05 -3.9592e-05 7.1118e-03 -3.7821e-05 2.5542e-05 2.4838e-03 -6.4324e-05 4.6950e-05 
7.0231e-03 3.8432e-05 4.1303e-05 2.4543e-03 8.6568e-05 9.5746e-05 6.9104e-03 -2.1956e-05 -5.1867e-05 2.4875e-03 -2.7614e-05 -9.2096e-05 7.0146e-03 5.5267e-05 -7.2445e-06 2.5153e-03 4.6048e-05 9.1220e-06 6.9426e-03 3.6817e-05 -2.7625e-05 2.5076e-03 5.6187e-05 -1.6840e-05 7.0061e-03 6.6330e-05 4.9762e-05 2.5162e-03 1.3312e-05 2.3751e-05 
6.5062e-03 -1.5885e-05 5.3170e-05 1.9135e-03 -4.4856e-05 -1.1080e-06 6.4441e-03 -3.5161e-05 -4.7688e-08 1.9774e-03 -3.1774e-05 2.0831e-06 6.4996e-03 -6.6346e-05 2.1829e-05 1.9403e-03 -9.1819e-05 2.3284e-05 6.4697e-03 -6.0205e-05 -6.9295e-05 2.0020e-03 -2.3423e-05 -3.2841e-05 6.4972e-03 -5.3964e-06 1.5512e-06 1.9620e-03 -5.1866e-06 3.2630e-05 
5.4418e-03 5.7371e-05 2.0725e-06 9.1093e-04 4.0803e-05 8.4659e-06 5.3821e-03 5.4781e-05 3.9488e-06 9.0809e-04 4.1907e-05 7.1927e-05 5.4170e-03 -9.0503e-06 4.6423e-05 9.5943e-04 6.4095e-06 -3.2759e-05 5.4118e-03 5.1872e-05 -3.4238e-05 9.2531e-04 5.5572e-05 -3.4943e-05 5.4290e-03 4.9854e-05 -1.9220e-05 9.4376e-04 4.7714e-05 -4.6467e-06 
3.6420e-03 -5.0365e-05 4.2807e-06 -8.4307e-04 -3.8347e-05 4.4724e-06 3.5955e-03 -3.0282e-05 1.5025e-05 -8.3439e-04 -4.5078e-05 3.2894e-05 3.5837e-03 -3.4380e-05 1.3643e-06 -8.0494e-04 -4.5265e-05 -1.4767e-05 3.6237e-03 -2.1884e-05 -1.4927e-05 -8.4839e-04 -2.8689e-05 -2.0936e-05 3.6335e-03 -4.4491e-06 -1.6611e-05 -8.0799e-04 -6.3211e-05 -7.8408e-06 
0.0000e+00 0.0000e+00 0.0000e+00 0.0000e+00 0.0000e+00 0.0000e+00 0.0000e+00 0.0000e+00 0.0000e+00 0.0000e+00 0.0000e+00 0.0000e+00 0.0000e+00 0.0000e+00 0.0000e+00 0.0000e+00 0.0000e+00 0.0000e+00 0.0000e+00 0.0000e+00 0.0000e+00 0.0000e+00 0.0000e+00 0.0000e+00 0.0000e+00 0.0000e+00 0.0000e+00 0.0000e+00 0.0000e+00 0.0000e+00 
0.0000e+00 0.0000e+00 0.0000e+00 0.0000e+00 0.0000e+00 0.0000e+00 0.0000e+00 0.0000e+00 0.0000e+00 0.0000e+00 0.0000e+00 0.0000e+00 0.0000e+00 0.0000e+00 0.0000e+00 0.0000e+00 0.0000e+00 0.0000e+00 0.0000e+00 0.0000e+00 0.0000e+00 0.0000e+00 0.0000e+00 0.0000e+00 0.0000e+00 0.0000e+00 0.0000e+00 0.0000e+00 0.0000e+00 0.0000e+00 
3.8612e-03 1.4273e-05 -1.8067e-05 -8.6767e-04 4.9792e-05 2.3318e-06 3.8393e-03 4.6732e-05 2.7769e-05 -9.4359e-04 4.7268e-05 -8.4751e-06 3.8492e-03 5.8433e-05 -2.0815e-05 -1.0594e-03 -9.3346e-05 -1.0705e-06 3.8813e-03 8.8126e-06 -9.7904e-08 -1.0403e-03 1.3848e-04 -1.9246e-05 3.8797e-03 -1.6584e-05 -6.1072e-06 -8.7423e-04 9.0798e-05 2.8989e-05 
5.7586e-03 9.5218e-06 -8.8822e-07 9.4508e-04 -2.2753e-06 1.4117e-04 5.8002e-03 -1.2982e-05 1.0462e-05 1.0314e-03 -7.7441e-06 -9.7352e-07 5.7733e-03 -3.5961e-05 -7.6950e-06 8.2476e-04 -3.1332e-05 -7.4125e-06 5.7604e-03 -1.3648e-04 -3.8078e-05 7.9385e-04 -1.4138e-04 -3.0962e-05 5.7236e-03 -3.1648e-05 1.4233e-06 8.7503e-04 -2.2873e-06 -1.3084e-04 
6.8390e-03 5.4819e-05 4.4974e-05 2.2448e-03 3.8086e-05 4.4248e-06 6.9522e-03 5.5556e-05 3.4851e-06 2.2316e-03 2.2178e-05 -3.6125e-05 6.9275e-03 3.1323e-05 -3.7108e-05 2.0901e-03 1.3809e-04 -8.0854e-06 6.7877e-03 -6.0071e-06 -7.8537e-05 2.0457e-03 -7.8077e-05 -1.2133e-05 6.8107e-03 4.2134e-05 4.6223e-05 2.1233e-03 7.6620e-05 5.1473e-05 
7.2473e-03 -4.4918e-05 -6.0417e-05 2.7708e-03 -2.8172e-05 5.1868e-05 7.2612e-03 -9.6745e-05 8.0742e-05 2.7777e-03 -8.6286e-05 -4.3601e-05 7.3712e-03 -7.9314e-06 -4.4858e-06 2.6973e-03 -8.3709e-06 -4.9104e-05 7.2940e-03 3.5334e-06 -2.1115e-05 2.6710e-03 -1.8992e-05 -5.4726e-06 7.3531e-03 -4.8082e-05 1.5757e-05 2.6683e-03 -5.7900e-05 5.7138e-05 
7.3211e-03 4.7230e-05 5.4018e-05 2.7121e-03 1.4331e-05 3.4814e-05 7.1902e-03 3.7827e-06 -7.8241e-06 2.7247e-03 2.3001e-05 1.8707e-05 7.2490e-03 5.3730e-05 9.8209e-06 2.6698e-03 8.4350e-05 -2.8452e-05 7.2336e-03 4.0915e-05 -5.8748e-06 2.7054e-03 4.9500e-05 -2.8822e-05 7.3315e-03 3.6858e-05 -3.1450e-06 2.6978e-03 3.6512e-05 4.3500e-05 
6.7260e-03 -2.6530e-05 3.9987e-05 2.0963e-03 -4.9277e-05 1.5153e-05 6.6568e-03 -2.1854e-05 3.2000e-05 2.1416e-03 -1.0432e-05 1.1137e-06 6.4624e-03 -6.2456e-05 -2.3211e-04 2.1436e-03 -1.0002e-04 2.4089e-05 6.4602e-03 -5.2187e-05 2.0738e-04 2.1508e-03 -2.6610e-05 -5.6461e-05 6.7298e-03 -4.2491e-05 -1.9243e-05 2.1523e-03 -3.4246e-05 3.4751e-05 
5.5906e-03 1.7595e-05 1.2932e-06 1.0122e-03 6.5624e-05 7.0299e-05 5.5357e-03 5.4177e-05 1.2047e-05 1.0786e-03 5.1007e-05 -3.7456e-05 5.5575e-03 8.0149e-06 4.3935e-06 1.1241e-03 5.2068e-06 4.4379e-06 5.5754e-03 5.1771e-05 -2.2124e-05 1.0773e-03 5.3024e-05 -3.8713e-05 5.5825e-03 7.8351e-05 -1.8790e-05 1.0516e-03 2.5925e-05 -3.5951e-05 
3.7236e-03 -3.2197e-05 -8.8805e-06 -7.6584e-04 -4.9743e-05 3.5441e-05 3.6309e-03 2.1521e-05 -3.1042e-06 -7.4048e-04 -5.3098e-05 -6.8642e-06 3.6284e-03 -5.3293e-05 2.3291e-05 -7.1153e-04 -4.0138e-05 5.4238e-06 3.6606e-03 -2.6609e-05 -1.4771e-05 -7.6917e-04 -2.2467e-05 -2.1147e-05 3.7023e-03 -4.6870e-05 1.2025e-05 -7.7983e-04 -5.8906e-05 -8.0803e-06 
0.0000e+00 0.0000e+00 0.0000e+00 0.0000e+00 0.0000e+00 0.0000e+00 0.0000e+00 0.0000e+00 0.0000e+00 0.0000e+00 0.0000e+00 0.0000e+00 0.0000e+00 0.0000e+00 0.0000e+00 0.0000e+00 0.0000e+00 0.0000e+00 0.0000e+00 0.0000e+00 0.0000e+00 0.0000e+00 0.0000e+00 0.0000e+00 0.0000e+00 0.0000e+00 0.0000e+00 0.0000e+00 0.0000e+00 0.0000e+00 
0.0000e+00 0.0000e+00 0.0000e+00 0.0000e+00 0.0000e+00 0.0000e+00 0.0000e+00 0.0000e+00 0.0000e+00 0.0000e+00 0.0000e+00 0.0000e+00 0.0000e+00 0.0000e+00 0.0000e+00 0.0000e+00 0.0000e+00 0.0000e+00 0.0000e+00 0.0000e+00 0.0000e+00 0.0000e+00 0.0000e+00 0.0000e+00 0.0000e+00 0.0000e+00 0.0000e+00 0.0000e+00 0.0000e+00 0.0000e+00 
3.7585e-03 5.3258e-05 -6.4025e-06 -9.8965e-04 1.8238e-04 -5.5804e-06 3.8021e-03 5.9830e-05 -3.1530e-06 -9.8369e-04 5.5060e-05 1.1344e-05 3.7695e-03 1.2061e-05 1.9950e-05 -1.0010e-03 3.6237e-05 2.8216e-05 3.7465e-03 1.0060e-06 -9.1595e-07 -9.4036e-04 -1.1802e-05 -1.8225e-05 3.8320e-03 1.0199e-06 -9.2720e-06 -1.0226e-03 -6.9867e-05 -1.3960e-05 
5.6097e-03 2.3802e-05 -7.2957e-06 7.6223e-04 -2.1571e-06 -6.0249e-06 3.0750e-03 -5.4812e-05 5.3612e-06 9.8298e-04 -5.1125e-08 1.5955e-05 5.6878e-03 -3.5880e-05 2.4484e-05 8.2811e-04 -9.3437e-05 1.1763e-04 5.5334e-03 -1.9027e-04 -2.4977e-06 8.4010e-04 -1.1726e-04 -1.1723e-04 5.5979e-03 1.1514e-05 -1.6073e-05 6.3883e-04 2.4443e-06 -2.0231e-05 
6.5625e-03 -2.4655e-05 -3.5019e-06 2.0051e-03 -8.3789e-05 -1.5812e-06 6.7013e-03 1.0921e-04 -5.4758e-06 2.1584e-03 -4.1773e-06 -2.2035e-06 6.8424e-03 2.8073e-05 1.6852e-05 2.0527e-03 2.5898e-05 4.5469e-06 6.5527e-03 5.0666e-05 -3.3636e-06 1.9751e-03 2.6290e-05 -6.5221e-06 6.4308e-03 6.0385e-05 -1.2767e-05 1.7948e-03 2.6895e-04 -6.3503e-06 
6.9689e-03 -3.9623e-05 6.5123e-06 2.6098e-03 -6.2324e-05 -3.9163e-06 6.9972e-03 -1.3570e-04 -9.5948e-06 2.6809e-03 -4.9485e-05 -1.5801e-05 7.1879e-03 2.3802e-05 -6.4590e-06 2.4926e-03 -1.9908e-05 -2.2903e-06 7.0697e-03 4.4589e-05 -4.2618e-06 2.3423e-03 -3.1221e-05 -3.5373e-06 7.1211e-03 -7.0443e-05 1.8024e-06 2.4855e-03 -1.3578e-05 8.1579e-06 
7.0290e-03 9.5243e-05 3.2998e-05 2.5176e-03 -1.6083e-05 -7.3650e-06 6.9656e-03 -6.9100e-05 -1.3113e-05 2.5530e-03 3.1654e-05 -1.5501e-05 6.6130e-03 -1.7128e-04 -2.7445e-05 2.3972e-03 1.5457e-04 -4.3078e-06 6.7845e-03 3.1422e-04 -5.6978e-06 2.4636e-03 3.2985e-05 -5.7310e-06 7.1459e-03 7.8691e-05 9.3295e-06 2.4836e-03 6.5856e-05 1.1139e-05 
6.5798e-03 -5.3507e-05 4.8522e-06 1.9261e-03 -1.6423e-05 -1.7018e-06 6.4672e-03 -2.0343e-06 -1.0781e-05 1.7707e-03 -6.6494e-05 -1.8579e-05 6.0611e-03 -8.3111e-05 -1.3359e-05 1.9631e-03 -2.9190e-05 -7.3008e-06 6.0298e-03 -5.6621e-05 -7.5847e-06 1.9377e-03 -4.3033e-05 4.5051e-07 6.5872e-03 -4.7708e-05 9.9031e-06 1.9299e-03 -9.7165e-05 5.8567e-06 
5.5390e-03 -8.8451e-06 -7.0999e-06 8.6574e-04 8.1070e-05 -6.7241e-06 5.3345e-03 7.5491e-05 -1.0088e-05 9.4480e-04 7.7827e-05 -1.3635e-05 5.2510e-03 2.7642e-04 5.8850e-07 1.0013e-03 -8.0511e-06 5.6285e-07 5.1997e-03 -2.0699e-04 -3.8374e-06 9.3065e-04 7.8043e-05 -7.3808e-07 5.4611e-03 9.6999e-05 4.9389e-06 8.7674e-04 -2.2791e-06 6.2891e-07 
3.7045e-03 3.2805e-05 -5.8190e-06 -8.6116e-04 -8.3800e-05 -1.2778e-05 3.5685e-03 5.3329e-05 -1.0513e-05 -7.4529e-04 -5.6579e-05 -4.0435e-06 3.5994e-03 -6.1984e-05 -2.0779e-06 -7.7335e-04 -8.7685e-05 7.6761e-07 3.6041e-03 -5.6565e-05 -2.2648e-07 -7.9281e-04 1.6492e-05 -1.9803e-06 3.6782e-03 -8.7189e-05 1.3452e-06 -1.7219e-03 -3.1069e-05 1.1548e-06 
0.0000e+00 0.0000e+00 0.0000e+00 0.0000e+00 0.0000e+00 0.0000e+00 0.0000e+00 0.0000e+00 0.0000e+00 0.0000e+00 0.0000e+00 0.0000e+00 0.0000e+00 0.0000e+00 0.0000e+00 0.0000e+00 0.0000e+00 0.0000e+00 0.0000e+00 0.0000e+00 0.0000e+00 0.0000e+00 0.0000e+00 0.0000e+00 0.0000e+00 0.0000e+00 0.0000e+00 0.0000e+00 0.0000e+00 0.0000e+00 
0.0000e+00 0.0000e+00 0.0000e+00 0.0000e+00 0.0000e+00 0.0000e+00 0.0000e+00 0.0000e+00 0.0000e+00 0.0000e+00 0.0000e+00 0.0000e+00 0.0000e+00 0.0000e+00 0.0000e+00 0.0000e+00 0.0000e+00 0.0000e+00 0.0000e+00 0.0000e+00 0.0000e+00 0.0000e+00 0.0000e+00 0.0000e+00 0.0000e+00 0.0000e+00 0.0000e+00 0.0000e+00 0.0000e+00 0.0000e+00 
3.6774e-03 2.5007e-05 -1.0902e-05 -9.4480e-04 5.0975e-05 -1.0828e-06 3.6548e-03 4.7093e-05 -9.7643e-06 -9.9102e-04 5.0764e-05 3.3476e-05 3.6483e-03 2.4747e-05 4.1082e-05 -1.0046e-03 1.6522e-05 1.2828e-05 3.6313e-03 3.6759e-06 1.5304e-07 -9.7417e-04 2.3168e-05 7.4559e-06 3.6664e-03 1.7369e-05 -1.9220e-05 -9.3723e-04 7.1955e-05 -6.3250e-05 
5.3399e-03 1.7382e-05 -4.3655e-05 6.1953e-04 -2.6522e-06 -1.6129e-04 5.3802e-03 -1.7958e-05 1.8941e-06 7.4554e-04 -1.8917e-05 4.3652e-05 5.3542e-03 -5.7013e-05 4.4729e-05 7.3618e-04 -8.6079e-05 4.0197e-05 5.2931e-03 -1.2660e-04 4.9766e-05 7.1180e-04 -8.5784e-05 3.8328e-06 5.2940e-03 -1.1041e-05 -3.4263e-05 5.8737e-04 1.5384e-05 7.3419e-05 
6.2547e-03 6.4158e-05 -6.9665e-05 1.7376e-03 4.9605e-05 -1.7162e-05 6.3641e-03 4.6663e-05 1.0753e-06 1.7593e-03 -7.5605e-06 5.1457e-05 6.3506e-03 3.7811e-06 5.8775e-05 1.6933e-03 2.8952e-05 1.2816e-05 6.2155e-03 -9.0068e-06 8.7810e-05 1.6393e-03 2.3858e-05 1.3743e-05 6.2151e-03 5.6094e-05 -6.3155e-05 1.6395e-03 9.7959e-05 -6.8905e-05 
6.5972e-03 -2.1731e-05 5.7311e-05 2.1601e-03 -2.0202e-05 -1.9431e-05 6.6247e-03 -8.4867e-05 -4.4328e-05 2.1856e-03 -8.4881e-05 4.5501e-05 6.7229e-03 -3.7063e-05 1.1997e-05 2.0713e-03 -8.1596e-06 4.4523e-05 6.6287e-03 -1.8531e-06 1.2421e-05 2.0541e-03 -2.4509e-05 -1.2348e-06 6.6820e-03 -3.4720e-05 -2.5492e-05 2.0690e-03 -4.7309e-05 -7.2813e-05 
6.6770e-03 3.9611e-05 -3.9742e-05 2.0912e-03 1.8065e-05 1.5738e-05 6.6154e-03 5.3461e-06 8.6579e-05 2.0967e-03 2.3131e-05 1.4243e-05 6.5998e-03 4.4365e-05 -1.5194e-05 2.0367e-03 8.4845e-05 8.1054e-06 6.5529e-03 3.7869e-05 -5.3258e-06 2.0654e-03 4.8706e-05 1.3376e-05 6.6588e-03 4.2919e-05 -1.4499e-05 2.0746e-03 2.9383e-05 -6.2507e-05 
6.1692e-03 -4.4595e-05 -3.8554e-05 1.5669e-03 -4.7130e-05 1.8396e-05 6.1003e-03 -2.2232e-05 1.9098e-05 1.6089e-03 -1.6573e-05 3.5725e-05 5.9052e-03 -3.8985e-05 2.4200e-04 1.5935e-03 -8.6951e-05 -4.9129e-05 5.8669e-03 -5.3046e-05 -2.1330e-04 1.6110e-03 -3.0378e-05 5.5168e-05 6.1321e-03 -4.1923e-05 -4.1131e-06 1.6064e-03 -3.3363e-05 -5.6846e-05 
5.1826e-03 1.7082e-06 -5.8286e-06 6.4901e-04 3.6204e-05 -5.8522e-05 5.1277e-03 4.3996e-05 9.4840e-06 7.1620e-04 5.8595e-05 5.3014e-05 5.1665e-03 1.5826e-05 1.4313e-05 7.4268e-04 4.1089e-06 -7.1650e-06 5.1601e-03 5.5346e-05 2.5190e-05 7.1043e-04 4.8323e-05 4.3542e-05 5.1697e-03 7.1841e-05 1.8490e-05 6.7469e-04 2.6043e-05 2.4930e-05 
3.5554e-03 -3.0155e-05 6.3925e-06 -8.9492e-04 -5.0522e-05 -3.1183e-05 3.4790e-03 1.3280e-05 1.4873e-05 -8.5992e-04 -4.6081e-05 1.1730e-05 3.4747e-03 -5.2182e-05 -1.0178e-05 -8.3894e-04 -3.4343e-05 6.3801e-06 3.4950e-03 -1.6208e-05 1.7367e-05 -8.9357e-04 -2.1353e-05 2.7587e-05 3.5427e-03 -5.1676e-05 -4.3373e-06 -9.0796e-04 -5.8080e-05 9.3174e-06 
0.0000e+00 0.0000e+00 0.0000e+00 0.0000e+00 0.0000e+00 0.0000e+00 0.0000e+00 0.0000e+00 0.0000e+00 0.0000e+00 0.0000e+00 0.0000e+00 0.0000e+00 0.0000e+00 0.0000e+00 0.0000e+00 0.0000e+00 0.0000e+00 0.0000e+00 0.0000e+00 0.0000e+00 0.0000e+00 0.0000e+00 0.0000e+00 0.0000e+00 0.0000e+00 0.0000e+00 0.0000e+00 0.0000e+00 0.0000e+00 
0.0000e+00 0.0000e+00 0.0000e+00 0.0000e+00 0.0000e+00 0.0000e+00 0.0000e+00 0.0000e+00 0.0000e+00 0.0000e+00 0.0000e+00 0.0000e+00 0.0000e+00 0.0000e+00 0.0000e+00 0.0000e+00 0.0000e+00 0.0000e+00 0.0000e+00 0.0000e+00 0.0000e+00 0.0000e+00 0.0000e+00 0.0000e+00 0.0000e+00 0.0000e+00 0.0000e+00 0.0000e+00 0.0000e+00 0.0000e+00 
3.4079e-03 3.0773e-05 -1.0821e-05 -1.1802e-03 5.5294e-05 -1.0529e-05 3.3810e-03 2.9779e-05 4.0172e-06 -1.1739e-03 4.3365e-05 3.4612e-05 3.3607e-03 -1.0565e-05 1.8290e-05 -1.1490e-03 6.1715e-05 1.8804e-05 3.3294e-03 8.1748e-06 -9.8548e-06 -1.1568e-03 2.8521e-06 -3.2180e-05 3.3592e-03 4.0316e-05 -2.7038e-05 -1.1604e-03 3.8266e-05 -1.4324e-05 
4.6935e-03 -8.9196e-06 -2.6239e-05 1.2244e-04 -1.0663e-05 -3.4929e-05 4.6737e-03 -1.0675e-05 -2.1667e-05 1.2097e-04 -3.1341e-05 1.5754e-05 4.6631e-03 -6.0117e-05 3.5423e-05 1.6873e-04 -8.2408e-05 7.6591e-05 4.6036e-03 -6.5347e-05 1.7917e-05 1.5713e-04 -5.5995e-05 -1.9907e-05 4.6532e-03 -2.9685e-05 -4.3947e-06 1.1418e-04 1.9989e-05 -5.2049e-05 
5.3235e-03 4.9394e-05 -9.0015e-05 8.2158e-04 4.9715e-05 -5.0897e-05 5.3677e-03 3.4714e-05 -1.8869e-05 8.2518e-04 1.6351e-05 5.8646e-06 5.3501e-03 1.7856e-05 3.1499e-05 8.3995e-04 -2.1268e-06 6.3796e-05 5.2970e-03 -2.0397e-06 8.8830e-05 8.1689e-04 3.9792e-05 4.5385e-05 5.3581e-03 4.9231e-05 -2.4787e-05 8.2995e-04 5.8964e-05 -8.5389e-05 
5.6621e-03 -1.5793e-05 -4.7920e-05 1.1311e-03 -1.2886e-05 -5.0094e-05 5.6559e-03 -4.0621e-05 -2.4194e-05 1.1275e-03 -8.8190e-05 2.9244e-05 5.6569e-03 -6.6873e-05 2.1720e-05 1.0922e-03 -1.2795e-05 2.4764e-05 5.6354e-03 -4.7705e-05 5.9833e-05 1.1275e-03 -2.0401e-05 4.3112e-05 5.6613e-03 -1.2555e-05 -2.5919e-05 1.1074e-03 -4.2338e-05 -8.5236e-05 
5.6332e-03 4.1257e-05 -5.0172e-05 1.1216e-03 3.9731e-05 -5.6461e-05 5.5427e-03 1.2475e-06 3.4153e-05 1.1071e-03 1.1192e-05 5.8741e-05 5.6367e-03 3.6845e-05 -1.4488e-07 1.1221e-03 1.3810e-05 -5.6131e-05 5.5337e-03 3.8113e-05 -1.3375e-05 1.1176e-03 4.3713e-05 1.7482e-05 5.6026e-03 3.6684e-05 -4.0050e-06 1.1205e-03 4.1078e-05 -1.2677e-05 
5.2524e-03 -2.7200e-05 -4.3853e-05 7.5188e-04 -5.9551e-05 -1.8689e-05 5.2231e-03 -4.5553e-05 1.2201e-05 8.1616e-04 -1.0507e-05 1.5023e-05 5.2438e-03 -3.1001e-05 -3.9994e-05 7.5826e-04 -7.8606e-05 -5.7783e-05 5.2335e-03 -4.0790e-05 2.9762e-05 8.0599e-04 -2.2818e-05 2.6787e-05 5.2346e-03 -3.0002e-05 1.2051e-05 7.9808e-04 -1.6988e-05 -1.0406e-05 
4.5186e-03 2.5953e-05 -3.2697e-05 1.1181e-04 9.4433e-06 -5.3085e-05 4.5008e-03 4.1927e-05 -1.0494e-05 1.2116e-04 2.7481e-05 -2.5347e-05 4.5000e-03 -5.4922e-07 -2.9551e-05 1.3815e-04 2.9036e-05 1.7000e-05 4.5236e-03 5.3630e-05 2.8056e-05 1.1810e-04 5.2203e-05 3.3494e-05 4.5174e-03 4.5803e-05 2.2215e-05 1.3574e-04 3.6567e-05 -5.4700e-06 
3.2801e-03 -4.2977e-05 -2.2268e-05 -1.1152e-03 -3.3947e-05 -2.9320e-05 3.2450e-03 -3.3812e-05 -2.7633e-05 -1.1120e-03 -5.7583e-05 -2.2286e-05 3.2399e-03 -3.6102e-05 -8.0217e-06 -1.0929e-03 -2.9002e-05 4.8839e-06 3.2626e-03 -1.3822e-05 9.7759e-06 -1.1162e-03 -3.4434e-05 2.6191e-05 3.2673e-03 -5.6530e-06 2.3474e-05 -1.1025e-03 -4.8686e-05 -3.8493e-06 
0.0000e+00 0.0000e+00 0.0000e+00 0.0000e+00 0.0000e+00 0.0000e+00 0.0000e+00 0.0000e+00 0.0000e+00 0.0000e+00 0.0000e+00 0.0000e+00 0.0000e+00 0.0000e+00 0.0000e+00 0.0000e+00 0.0000e+00 0.0000e+00 0.0000e+00 0.0000e+00 0.0000e+00 0.0000e+00 0.0000e+00 0.0000e+00 0.0000e+00 0.0000e+00 0.0000e+00 0.0000e+00 0.0000e+00 0.0000e+00 
0.0000e+00 0.0000e+00 0.0000e+00 0.0000e+00 0.0000e+00 0.0000e+00 0.0000e+00 0.0000e+00 0.0000e+00 0.0000e+00 0.0000e+00 0.0000e+00 0.0000e+00 0.0000e+00 0.0000e+00 0.0000e+00 0.0000e+00 0.0000e+00 0.0000e+00 0.0000e+00 0.0000e+00 0.0000e+00 0.0000e+00 0.0000e+00 0.0000e+00 0.0000e+00 0.0000e+00 0.0000e+00 0.0000e+00 0.0000e+00 
2.8538e-03 3.8136e-05 -3.7447e-06 -1.6975e-03 4.2499e-05 -1.1517e-05 2.8472e-03 3.0440e-05 1.0497e-06 -1.6828e-03 4.7953e-05 -4.8756e-06 2.7967e-03 -7.2725e-06 2.3781e-05 -1.6350e-03 7.8250e-05 2.2982e-05 2.7525e-03 2.2141e-05 1.3749e-05 -1.6429e-03 -2.3567e-05 -8.7189e-06 2.7986e-03 6.6812e-05 -1.3910e-05 -1.6737e-03 3.1803e-05 -4.3256e-06 
3.3878e-03 -2.1785e-05 -1.0575e-06 -1.1463e-03 -1.6638e-05 -1.9126e-05 3.3765e-03 -1.7210e-05 4.3313e-06 -1.1395e-03 -3.8241e-05 -6.7011e-06 3.3376e-03 -4.7745e-05 5.1596e-05 -1.0754e-03 -6.7048e-05 -4.9853e-05 3.2577e-03 -4.9655e-05 2.4394e-05 -1.0800e-03 -2.2383e-05 5.7507e-05 3.3434e-03 -2.6295e-05 -3.6968e-05 -1.1320e-03 -1.8690e-05 -1.6252e-05 
3.6444e-03 3.9002e-05 -2.6954e-06 -8.6048e-04 4.1780e-05 -7.8679e-06 3.6255e-03 3.7188e-05 8.2443e-06 -8.7413e-04 2.1063e-05 -7.1196e-06 3.6016e-03 2.4488e-05 2.8501e-05 -8.3626e-04 2.2681e-06 -5.4965e-06 3.5810e-03 2.4085e-05 2.0694e-05 -8.3530e-04 5.1715e-05 6.8829e-06 3.6090e-03 3.0201e-05 -7.5875e-06 -8.5368e-04 4.2786e-05 -2.3928e-05 
3.7469e-03 -2.3275e-05 2.3689e-06 -7.4100e-04 -2.4897e-05 -8.3676e-06 3.7201e-03 -4.2838e-05 2.0380e-05 -7.6031e-04 -4.8972e-05 4.5712e-06 3.7105e-03 -3.9042e-05 1.9895e-05 -7.4634e-04 -4.4654e-05 9.5524e-06 3.7197e-03 -3.8236e-05 2.5239e-05 -7.4564e-04 -3.6802e-05 -8.9147e-06 3.7217e-03 -2.9057e-05 -9.6664e-06 -7.3515e-04 -1.6775e-05 -3.2078e-05 
3.7236e-03 3.9816e-05 -3.9645e-06 -7.4388e-04 3.0240e-05 -2.2901e-05 3.6918e-03 2.3261e-05 1.9758e-05 -7.5041e-04 2.0568e-05 1.6729e-05 3.7001e-03 2.1607e-05 3.3263e-05 -7.4587e-04 2.1658e-05 6.4694e-06 3.7000e-03 2.7370e-05 3.2235e-05 -7.4265e-04 3.6506e-05 5.8030e-06 3.7116e-03 4.2955e-05 -1.2636e-05 -7.3229e-04 4.6003e-05 -2.9055e-05 
3.5663e-03 -3.0836e-05 -3.9041e-06 -8.5338e-04 -3.8823e-05 -2.6939e-05 3.5457e-03 -3.3551e-05 5.1776e-06 -8.5772e-04 -3.8773e-05 1.5930e-06 3.5475e-03 -4.0056e-05 1.5363e-05 -8.5516e-04 -3.1792e-05 1.3104e-05 3.5597e-03 -3.2124e-05 4.2007e-05 -8.4404e-04 -2.9720e-05 2.0031e-05 3.5724e-03 -2.7770e-05 3.5233e-06 -8.3636e-04 -2.7915e-05 -2.4628e-05 