<?xml version="1.0"?>
<!-- openLBMflow v1.0.1, www.lbmflow.com -->
<VTKFile type="ImageData" version="0.1" byte_order="LittleEndian">
  <ImageData WholeExtent="0 9 0 9 0 9" Origin="0 0 0" Spacing="1 1 1">
  <Piece Extent="0 9 0 9 0 9">
    <PointData Scalars="scalars">
      <DataArray type="Float32" Name="Velocity" NumberOfComponents="3" format="ascii">
0.0000e+00 0.0000e+00 0.0000e+00 0.0000e+00 0.0000e+00 0.0000e+00 0.0000e+00 0.0000e+00 0.0000e+00 0.0000e+00 0.0000e+00 0.0000e+00 0.0000e+00 0.0000e+00 0.0000e+00 0.0000e+00 0.0000e+00 0.0000e+00 0.0000e+00 0.0000e+00 0.0000e+00 0.0000e+00 0.0000e+00 0.0000e+00 0.0000e+00 0.0000e+00 0.0000e+00 0.0000e+00 0.0000e+00 0.0000e+00 
0.0000e+00 0.0000e+00 0.0000e+00 0.0000e+00 0.0000e+00 0.0000e+00 0.0000e+00 0.0000e+00 0.0000e+00 0.0000e+00 0.0000e+00 0.0000e+00 0.0000e+00 0.0000e+00 0.0000e+00 0.0000e+00 0.0000e+00 0.0000e+00 0.0000e+00 0.0000e+00 0.0000e+00 0.0000e+00 0.0000e+00 0.0000e+00 0.0000e+00 0.0000e+00 0.0000e+00 0.0000e+00 0.0000e+00 0.0000e+00 
0.0000e+00 0.0000e+00 0.0000e+00 0.0000e+00 0.0000e+00 0.0000e+00 0.0000e+00 0.0000e+00 0.0000e+00 0.0000e+00 0.0000e+00 0.0000e+00 0.0000e+00 0.0000e+00 0.0000e+00 0.0000e+00 0.0000e+00 0.0000e+00 0.0000e+00 0.0000e+00 0.0000e+00 0.0000e+00 0.0000e+00 0.0000e+00 0.0000e+00 0.0000e+00 0.0000e+00 0.0000e+00 0.0000e+00 0.0000e+00 
0.0000e+00 0.0000e+00 0.0000e+00 0.0000e+00 0.0000e+00 0.0000e+00 0.0000e+00 0.0000e+00 0.0000e+00 0.0000e+00 0.0000e+00 0.0000e+00 0.0000e+00 0.0000e+00 0.0000e+00 0.0000e+00 0.0000e+00 0.0000e+00 0.0000e+00 0.0000e+00 0.0000e+00 0.0000e+00 0.0000e+00 0.0000e+00 0.0000e+00 0.0000e+00 0.0000e+00 0.0000e+00 0.0000e+00 0.0000e+00 
0.0000e+00 0.0000e+00 0.0000e+00 0.0000e+00 0.0000e+00 0.0000e+00 0.0000e+00 0.0000e+00 0.0000e+00 0.0000e+00 0.0000e+00 0.0000e+00 0.0000e+00 0.0000e+00 0.0000e+00 0.0000e+00 0.0000e+00 0.0000e+00 0.0000e+00 0.0000e+00 0.0000e+00 0.0000e+00 0.0000e+00 0.0000e+00 0.0000e+00 0.0000e+00 0.0000e+00 0.0000e+00 0.0000e+00 0.0000e+00 
0.0000e+00 0.0000e+00 0.0000e+00 0.0000e+00 0.0000e+00 0.0000e+00 0.0000e+00 0.0000e+00 0.0000e+00 0.0000e+00 0.0000e+00 0.0000e+00 0.0000e+00 0.0000e+00 0.0000e+00 0.0000e+00 0.0000e+00 0.0000e+00 0.0000e+00 0.0000e+00 0.0000e+00 0.0000e+00 0.0000e+00 0.0000e+00 0.0000e+00 0.0000e+00 0.0000e+00 0.0000e+00 0.0000e+00 0.0000e+00 
0.0000e+00 0.0000e+00 0.0000e+00 0.0000e+00 0.0000e+00 0.0000e+00 0.0000e+00 0.0000e+00 0.0000e+00 0.0000e+00 0.0000e+00 0.0000e+00 0.0000e+00 0.0000e+00 0.0000e+00 0.0000e+00 0.0000e+00 0.0000e+00 0.0000e+00 0.0000e+00 0.0000e+00 0.0000e+00 0.0000e+00 0.0000e+00 0.0000e+00 0.0000e+00 0.0000e+00 0.0000e+00 0.0000e+00 0.0000e+00 
0.0000e+00 0.0000e+00 0.0000e+00 0.0000e+00 0.0000e+00 0.0000e+00 0.0000e+00 0.0000e+00 0.0000e+00 0.0000e+00 0.0000e+00 0.0000e+00 0.0000e+00 0.0000e+00 0.0000e+00 0.0000e+00 0.0000e+00 0.0000e+00 0.0000e+00 0.0000e+00 0.0000e+00 0.0000e+00 0.0000e+00 0.0000e+00 0.0000e+00 0.0000e+00 0.0000e+00 0.0000e+00 0.0000e+00 0.0000e+00 
0.0000e+00 0.0000e+00 0.0000e+00 0.0000e+00 0.0000e+00 0.0000e+00 0.0000e+00 0.0000e+00 0.0000e+00 0.0000e+00 0.0000e+00 0.0000e+00 0.0000e+00 0.0000e+00 0.0000e+00 0.0000e+00 0.0000e+00 0.0000e+00 0.0000e+00 0.0000e+00 0.0000e+00 0.0000e+00 0.0000e+00 0.0000e+00 0.0000e+00 0.0000e+00 0.0000e+00 0.0000e+00 0.0000e+00 0.0000e+00 
0.0000e+00 0.0000e+00 0.0000e+00 0.0000e+00 0.0000e+00 0.0000e+00 0.0000e+00 0.0000e+00 0.0000e+00 0.0000e+00 0.0000e+00 0.0000e+00 0.0000e+00 0.0000e+00 0.0000e+00 0.0000e+00 0.0000e+00 0.0000e+00 0.0000e+00 0.0000e+00 0.0000e+00 0.0000e+00 0.0000e+00 0.0000e+00 0.0000e+00 0.0000e+00 0.0000e+00 0.0000e+00 0.0000e+00 0.0000e+00 
0.0000e+00 0.0000e+00 0.0000e+00 0.0000e+00 0.0000e+00 0.0000e+00 0.0000e+00 0.0000e+00 0.0000e+00 0.0000e+00 0.0000e+00 0.0000e+00 0.0000e+00 0.0000e+00 0.0000e+00 0.0000e+00 0.0000e+00 0.0000e+00 0.0000e+00 0.0000e+00 0.0000e+00 0.0000e+00 0.0000e+00 0.0000e+00 0.0000e+00 0.0000e+00 0.0000e+00 0.0000e+00 0.0000e+00 0.0000e+00 
2.8358e-03 5.9385e-05 -5.4756e-06 -1.8851e-03 8.3557e-05 2.4501e-05 3.0739e-03 8.4843e-05 3.4965e-05 -1.6953e-03 2.7814e-05 -9.7067e-06 3.0528e-03 9.9588e-05 -1.2616e-06 -1.8707e-03 -1.2229e-04 -1.9091e-05 3.1500e-03 4.6297e-05 4.3416e-06 -1.8703e-03 2.3930e-04 1.6450e-05 3.0666e-03 -6.5720e-06 -4.0385e-05 -1.6076e-03 7.0006e-05 -1.4225e-05 
3.7290e-03 -2.4694e-04 -4.9835e-05 -1.0133e-03 -2.3272e-06 5.8954e-05 3.6604e-03 4.0996e-05 7.0486e-05 -1.1323e-03 -3.1936e-05 8.6023e-06 5.4576e-03 5.3970e-05 -6.4081e-07 -1.3037e-03 -1.7078e-05 -7.5434e-05 4.0059e-03 2.0633e-05 -4.8919e-05 -1.3187e-03 -9.1089e-05 4.3427e-05 3.8054e-03 -5.2494e-05 -4.1039e-05 -1.1218e-03 -1.6824e-04 2.0173e-05 
4.2192e-03 1.3131e-05 -7.2052e-05 -6.4954e-04 2.3631e-04 1.0588e-04 4.0120e-03 -4.0961e-05 4.2989e-05 -6.5777e-04 -1.5617e-04 2.2875e-05 4.0242e-03 1.6021e-05 -3.4413e-06 -9.5080e-04 1.5450e-04 -3.5879e-05 4.3444e-03 3.1452e-04 -4.1940e-05 -7.7760e-04 2.4858e-04 -4.4009e-05 4.6407e-03 -1.1128e-04 4.7884e-05 -7.9269e-04 -2.7163e-04 -1.4978e-05 
7.0421e-03 5.6601e-05 -4.0517e-07 -4.2666e-04 -1.1424e-04 1.1410e-04 3.9111e-03 7.6049e-05 -1.0009e-06 -2.1250e-04 2.6300e-04 3.7727e-05 4.2274e-03 -8.5875e-05 -4.3574e-05 -5.3653e-04 -3.1460e-04 3.6069e-05 4.5947e-03 -1.3671e-04 -8.9743e-05 -6.7283e-04 9.1002e-05 -7.2133e-06 4.2522e-03 -1.1045e-04 2.6113e-05 -2.7309e-04 -1.3977e-04 -5.3948e-05 
4.0997e-03 6.4253e-05 1.0136e-04 -5.5000e-04 -2.1933e-04 1.2731e-05 4.3990e-03 9.2299e-05 3.1841e-05 -3.2956e-04 2.6437e-04 3.5358e-05 3.7738e-03 1.0173e-04 -6.9282e-05 -3.5490e-04 2.2525e-05 -1.7423e-05 4.4551e-03 -1.6440e-04 -7.4040e-05 -9.2679e-05 1.1598e-04 8.4302e-05 4.1322e-03 2.6271e-04 -1.2257e-04 1.5205e-04 1.5748e-04 -7.7234e-05 
3.8117e-03 -1.5541e-04 4.5551e-05 -7.6431e-04 7.8727e-05 -8.4311e-06 4.0394e-03 -5.5787e-05 1.4019e-05 -7.0274e-04 -2.9246e-04 2.6576e-06 4.0361e-03 4.0393e-05 -2.0747e-05 -7.0661e-04 2.0367e-04 -4.0486e-05 4.0737e-03 -6.9013e-05 -1.0955e-05 -2.0026e-04 -7.6934e-05 4.4877e-05 3.4437e-03 -6.9406e-05 1.2070e-05 -4.0916e-05 -1.8185e-04 3.4004e-05 
3.5333e-03 9.7113e-05 -4.0510e-05 -1.0309e-03 1.5403e-04 2.6416e-05 3.4976e-03 4.4328e-05 1.1426e-05 -1.0739e-03 4.9652e-05 -1.7405e-05 3.5608e-03 5.1527e-05 2.8127e-06 -1.1573e-03 5.8661e-05 -3.8406e-05 3.5445e-03 3.5924e-05 -7.7121e-06 -5.4963e-04 -2.1564e-04 4.0349e-05 3.2704e-03 7.1179e-05 -5.1487e-05 -5.2420e-04 2.6328e-04 4.9321e-05 
3.0209e-03 1.9542e-05 -1.3700e-05 -1.6634e-03 -8.9598e-05 2.8723e-05 2.8356e-03 -8.2541e-05 5.8385e-06 -1.6116e-03 -2.6543e-05 -9.2137e-06 2.8619e-03 -6.1318e-05 -1.7023e-05 -1.6802e-03 -3.7636e-05 -2.6823e-05 2.9030e-03 -6.6215e-05 -7.7761e-06 -1.5164e-03 -2.0627e-04 -2.7243e-06 2.8956e-03 -4.6992e-05 1.7198e-05 -1.5458e-03 1.4960e-04 -1.0546e-05 
0.0000e+00 0.0000e+00 0.0000e+00 0.0000e+00 0.0000e+00 0.0000e+00 0.0000e+00 0.0000e+00 0.0000e+00 0.0000e+00 0.0000e+00 0.0000e+00 0.0000e+00 0.0000e+00 0.0000e+00 0.0000e+00 0.0000e+00 0.0000e+00 0.0000e+00 0.0000e+00 0.0000e+00 0.0000e+00 0.0000e+00 0.0000e+00 0.0000e+00 0.0000e+00 0.0000e+00 0.0000e+00 0.0000e+00 0.0000e+00 
0.0000e+00 0.0000e+00 0.0000e+00 0.0000e+00 0.0000e+00 0.0000e+00 0.0000e+00 0.0000e+00 0.0000e+00 0.0000e+00 0.0000e+00 0.0000e+00 0.0000e+00 0.0000e+00 0.0000e+00 0.0000e+00 0.0000e+00 0.0000e+00 0.0000e+00 0.0000e+00 0.0000e+00 0.0000e+00 0.0000e+00 0.0000e+00 0.0000e+00 0.0000e+00 0.0000e+00 0.0000e+00 0.0000e+00 0.0000e+00 
3.5836e-03 1.0723e-05 -7.4679e-05 -1.1160e-03 5.5145e-05 7.7616e-05 3.6183e-03 6.7074e-05 1.0007e-04 -1.1555e-03 4.8304e-05 1.8530e-05 3.6114e-03 5.6256e-05 -4.2269e-05 -1.2418e-03 7.2078e-05 -7.3980e-06 3.6419e-03 5.7070e-05 1.1293e-05 -1.2113e-03 6.1577e-05 -9.1602e-06 3.6185e-03 -7.1630e-06 1.8242e-05 -1.1434e-03 4.4484e-05 -7.1344e-05 
5.0230e-03 -1.4709e-04 3.0420e-05 2.4116e-04 -6.4648e-05 2.3456e-05 5.0012e-03 -1.8522e-06 3.0755e-05 2.2919e-04 -1.0907e-05 3.9191e-05 5.0786e-03 -6.6349e-05 -5.9308e-05 9.4195e-05 -7.9781e-05 3.9923e-05 5.1401e-03 -2.1439e-06 -4.4468e-06 1.4765e-04 1.7285e-05 -7.9925e-05 5.1486e-03 -8.2342e-05 2.9377e-05 2.2340e-04 -1.4469e-04 4.9898e-06 
6.0112e-03 -8.3550e-06 9.3797e-05 1.0345e-03 5.9251e-05 -2.3963e-06 5.8913e-03 5.4118e-05 8.5352e-05 9.6455e-04 9.6312e-05 6.5327e-05 5.8200e-03 3.3716e-05 1.3879e-06 8.6298e-04 4.8166e-05 -4.7868e-05 5.9068e-03 6.8320e-05 -6.0555e-05 8.7786e-04 4.8746e-05 2.7411e-05 6.0159e-03 4.9831e-05 -2.8873e-05 9.8817e-04 5.5371e-07 1.9291e-05 
6.3875e-03 -2.8243e-05 2.9734e-05 1.5730e-03 -3.6729e-05 -2.1509e-04 6.3369e-03 3.0156e-05 7.2482e-05 1.4691e-03 1.6808e-05 2.6087e-04 6.1811e-03 -1.2158e-05 5.2546e-05 1.2593e-03 1.0186e-05 -6.1103e-05 6.4286e-03 -9.5183e-05 -2.7810e-04 1.5880e-03 -1.0679e-04 -2.6365e-04 6.5459e-03 -9.9816e-05 2.0149e-04 1.6197e-03 -8.4990e-05 3.4663e-04 
6.1787e-03 4.3003e-05 -9.2282e-05 1.4172e-03 1.0644e-04 8.9195e-05 6.3051e-03 1.0261e-04 -5.1065e-05 1.4937e-03 9.2894e-05 -2.4170e-04 6.2475e-03 1.1994e-04 8.2827e-05 1.5339e-03 6.9612e-05 2.4125e-04 6.1862e-03 3.7891e-05 -4.2738e-05 1.4818e-03 -5.4855e-06 -1.8767e-04 6.1225e-03 -3.2778e-05 7.3805e-07 1.4941e-03 2.7736e-05 8.9058e-05 
5.7637e-03 -1.6950e-05 3.0673e-05 1.0777e-03 2.9352e-05 5.4796e-05 5.7652e-03 -2.3330e-05 -2.8572e-05 9.8315e-04 -1.4922e-05 1.0330e-05 5.8091e-03 7.5892e-06 -5.3452e-06 9.7151e-04 -3.4553e-05 -1.6301e-05 5.8310e-03 -6.9330e-05 -7.9974e-05 1.2716e-03 -1.6982e-04 -3.0054e-04 5.7837e-03 -1.1921e-04 4.5792e-05 1.3141e-03 -6.3760e-05 2.3554e-04 
4.8961e-03 1.1379e-04 5.0956e-05 3.2177e-04 3.7460e-05 -1.5015e-05 4.8643e-03 3.4161e-05 -5.5328e-06 2.9680e-04 3.6286e-05 1.6288e-05 4.8950e-03 5.3266e-05 -4.8456e-05 2.6052e-04 4.8712e-05 -6.0571e-05 4.9118e-03 8.2819e-06 -2.9936e-05 4.3668e-04 9.7775e-06 -1.1529e-04 4.9404e-03 3.7522e-05 5.2536e-05 4.8714e-04 7.5138e-05 1.7928e-04 
3.4387e-03 8.0227e-06 7.4223e-06 -1.0787e-03 -7.0420e-05 -4.8978e-05 3.4325e-03 -6.2015e-05 2.3936e-06 -1.0496e-03 -4.3060e-05 6.2753e-06 3.4326e-03 -3.9982e-05 -2.1034e-05 -1.1292e-03 -3.2528e-05 -1.9390e-05 3.4177e-03 -6.1092e-05 -1.4326e-05 -1.1332e-03 -1.0935e-04 9.4604e-06 3.4700e-03 -3.1855e-05 1.4544e-05 -1.0810e-03 -1.9963e-05 4.0246e-05 
0.0000e+00 0.0000e+00 0.0000e+00 0.0000e+00 0.0000e+00 0.0000e+00 0.0000e+00 0.0000e+00 0.0000e+00 0.0000e+00 0.0000e+00 0.0000e+00 0.0000e+00 0.0000e+00 0.0000e+00 0.0000e+00 0.0000e+00 0.0000e+00 0.0000e+00 0.0000e+00 0.0000e+00 0.0000e+00 0.0000e+00 0.0000e+00 0.0000e+00 0.0000e+00 0.0000e+00 0.0000e+00 0.0000e+00 0.0000e+00 
0.0000e+00 0.0000e+00 0.0000e+00 0.0000e+00 0.0000e+00 0.0000e+00 0.0000e+00 0.0000e+00 0.0000e+00 0.0000e+00 0.0000e+00 0.0000e+00 0.0000e+00 0.0000e+00 0.0000e+00 0.0000e+00 0.0000e+00 0.0000e+00 0.0000e+00 0.0000e+00 0.0000e+00 0.0000e+00 0.0000e+00 0.0000e+00 0.0000e+00 0.0000e+00 0.0000e+00 0.0000e+00 0.0000e+00 0.0000e+00 
3.8051e-03 -7.7892e-07 -3.4240e-05 -9.7561e-04 5.4554e-05 7.2213e-06 3.8409e-03 5.4816e-05 4.5277e-05 -9.6412e-04 6.3315e-05 3.9150e-05 3.8406e-03 4.9397e-05 -5.0913e-07 -1.0111e-03 8.5321e-05 -3.0748e-05 3.8430e-03 4.7954e-05 -2.1143e-05 -9.8108e-04 3.5533e-05 -1.0363e-05 3.8387e-03 2.4071e-05 -2.2344e-05 -9.9763e-04 2.8016e-05 -3.6691e-05 
5.6367e-03 -6.2838e-05 -4.0100e-05 8.4742e-04 -7.9938e-05 2.8424e-05 5.6904e-03 -1.7011e-05 9.1019e-05 8.5045e-04 2.1480e-05 8.7212e-05 5.6954e-03 -2.0423e-05 -1.9637e-05 5.8487e-04 -4.0110e-05 -2.4007e-04 5.6418e-03 -4.5976e-05 -3.1942e-05 6.2544e-04 -2.1271e-05 1.5222e-04 5.7052e-03 -1.1509e-04 -5.2404e-05 8.0518e-04 -1.2626e-04 -7.3832e-05 
6.7224e-03 -1.4513e-05 -2.1366e-05 1.8664e-03 5.2310e-05 7.0069e-05 6.7733e-03 1.3351e-04 1.3076e-04 1.8912e-03 1.0188e-04 1.2273e-04 6.6590e-03 7.3448e-05 7.5775e-05 1.7682e-03 3.4679e-05 9.3417e-06 6.7643e-03 5.3500e-05 -9.8928e-05 1.7595e-03 4.6155e-05 -1.6766e-04 6.6971e-03 -2.5059e-05 -1.3735e-04 1.8915e-03 8.6881e-06 -7.9308e-05 
7.1765e-03 -1.2052e-04 -3.7230e-05 2.4338e-03 2.9570e-05 6.2542e-05 7.2630e-03 -1.0658e-05 1.5101e-04 2.3254e-03 -1.2777e-05 1.5422e-04 7.1731e-03 2.8116e-05 7.8180e-05 2.3476e-03 -8.3499e-06 -2.8290e-05 7.1943e-03 -5.6250e-05 -7.1858e-05 2.3378e-03 -1.4766e-04 -7.2750e-05 7.1844e-03 -6.2783e-05 -1.4622e-04 2.3285e-03 -7.0694e-05 -1.2848e-04 
7.1595e-03 8.0002e-05 -1.6026e-06 2.4367e-03 1.0376e-04 3.4078e-05 7.1829e-03 5.6701e-05 2.3924e-05 2.4318e-03 8.4999e-05 6.5134e-05 7.1894e-03 8.1563e-05 7.6060e-05 2.3406e-03 8.6964e-05 4.7354e-06 7.1512e-03 1.6991e-05 -3.9754e-05 2.4572e-03 -4.8341e-05 -9.1558e-05 7.1477e-03 -1.5509e-06 -8.4160e-05 2.3843e-03 1.2734e-05 -2.9924e-05 
6.6087e-03 1.4945e-05 6.5037e-05 1.9980e-03 -3.3135e-05 -6.4572e-06 6.6424e-03 1.4774e-05 9.9923e-07 1.9709e-03 -2.8400e-05 2.0291e-05 6.6557e-03 -5.6358e-05 1.0854e-05 1.9671e-03 -1.9618e-05 -2.7091e-05 6.5865e-03 -6.4977e-05 -6.6935e-05 1.9708e-03 -7.9020e-05 -3.7028e-05 6.6344e-03 -1.1758e-04 -2.3888e-05 1.9723e-03 -7.0835e-05 3.2825e-05 
5.5197e-03 7.7915e-05 2.8479e-06 9.6227e-04 3.5935e-05 -5.5656e-07 5.4980e-03 3.4705e-05 -2.5202e-05 9.6629e-04 3.4015e-05 -2.4067e-05 5.5183e-03 5.4094e-05 -1.6706e-05 9.3234e-04 3.2722e-05 5.4417e-06 5.4608e-03 2.2654e-05 1.7145e-05 9.3981e-04 3.9451e-05 -5.2853e-06 5.5153e-03 3.7305e-05 2.7109e-05 9.9755e-04 6.3982e-05 3.8375e-05 
3.6703e-03 -3.8859e-05 3.7571e-06 -8.1653e-04 -3.9848e-05 2.1391e-05 3.6881e-03 -3.8539e-05 1.0486e-05 -8.1458e-04 -4.1474e-05 -2.0097e-05 3.6724e-03 -3.2366e-05 -2.1826e-05 -8.6150e-04 -7.7665e-05 -6.5100e-09 3.6400e-03 -5.8006e-05 -1.8806e-06 -8.4883e-04 -8.3308e-05 9.1332e-06 3.7016e-03 -1.6378e-05 2.2026e-05 -8.0629e-04 -2.9186e-05 7.8666e-07 
0.0000e+00 0.0000e+00 0.0000e+00 0.0000e+00 0.0000e+00 0.0000e+00 0.0000e+00 0.0000e+00 0.0000e+00 0.0000e+00 0.0000e+00 0.0000e+00 0.0000e+00 0.0000e+00 0.0000e+00 0.0000e+00 0.0000e+00 0.0000e+00 0.0000e+00 0.0000e+00 0.0000e+00 0.0000e+00 0.0000e+00 0.0000e+00 0.0000e+00 0.0000e+00 0.0000e+00 0.0000e+00 0.0000e+00 0.0000e+00 
0.0000e+00 0.0000e+00 0.0000e+00 0.0000e+00 0.0000e+00 0.0000e+00 0.0000e+00 0.0000e+00 0.0000e+00 0.0000e+00 0.0000e+00 0.0000e+00 0.0000e+00 0.0000e+00 0.0000e+00 0.0000e+00 0.0000e+00 0.0000e+00 0.0000e+00 0.0000e+00 0.0000e+00 0.0000e+00 0.0000e+00 0.0000e+00 0.0000e+00 0.0000e+00 0.0000e+00 0.0000e+00 0.0000e+00 0.0000e+00 
3.8777e-03 2.9085e-05 1.3308e-05 -8.9264e-04 3.5320e-05 -1.5753e-05 3.9274e-03 3.5126e-05 7.2906e-06 -9.0561e-04 7.2624e-05 3.5477e-05 3.9007e-03 5.2636e-05 1.5565e-05 -1.1215e-03 -1.0444e-04 1.2428e-05 3.9037e-03 3.6037e-05 -4.0817e-06 -1.0790e-03 2.2973e-04 -1.6251e-05 3.9007e-03 -3.8829e-09 -4.4737e-05 -9.2307e-04 1.7510e-05 -2.7635e-05 
5.7719e-03 -1.2736e-04 -3.6396e-05 9.9503e-04 -3.7708e-05 2.9237e-06 5.8156e-03 2.5073e-05 6.4193e-05 1.0279e-03 4.2557e-05 7.5547e-05 5.8067e-03 2.6204e-05 4.9202e-05 6.0791e-04 -2.7897e-05 -5.5465e-07 5.8523e-03 -4.8999e-05 -1.9447e-05 6.1507e-04 -8.5660e-05 -6.0500e-05 5.8360e-03 -1.2791e-04 -7.6664e-05 9.6734e-04 -1.2008e-04 -4.6378e-05 
6.8161e-03 -2.0094e-05 -1.3966e-04 2.0105e-03 6.2406e-05 3.4949e-05 6.8448e-03 8.6639e-05 7.9158e-05 2.1085e-03 1.2852e-04 1.1335e-04 6.9134e-03 1.2140e-04 1.1423e-04 1.9559e-03 2.5408e-04 -1.0476e-06 7.0121e-03 3.3648e-05 -3.5888e-05 1.8966e-03 -1.6959e-04 -1.1163e-04 6.9456e-03 -1.1579e-05 -5.7713e-05 2.0141e-03 -3.5843e-05 -6.7332e-05 
7.3369e-03 -4.2701e-05 -4.3757e-05 2.2887e-03 -3.6739e-05 1.9663e-04 7.3830e-03 -1.4395e-05 4.5662e-05 2.5633e-03 -6.6668e-06 1.3967e-04 7.4644e-03 -2.2798e-05 8.2940e-05 2.6629e-03 -2.7399e-06 4.2217e-05 7.5304e-03 -5.6570e-05 -4.8156e-05 2.7164e-03 -9.2436e-05 -1.0600e-04 7.4331e-03 -8.9830e-05 -7.3451e-05 2.3563e-03 -9.3300e-05 -3.2248e-04 
7.3426e-03 8.0427e-05 3.5294e-05 2.6182e-03 8.3612e-05 -8.8033e-05 7.4416e-03 3.7191e-05 6.2373e-05 2.5799e-03 -7.4104e-07 7.1110e-05 7.4761e-03 6.1737e-05 3.0927e-06 2.7063e-03 8.2791e-05 5.8103e-05 7.4627e-03 2.3418e-05 -5.7881e-05 2.8232e-03 -1.8282e-05 -5.0910e-05 7.3480e-03 3.0808e-05 -6.2762e-05 2.7358e-03 9.0376e-05 -2.0076e-05 
6.7771e-03 1.5111e-05 2.5119e-05 2.2496e-03 4.2676e-06 -4.0682e-05 6.8641e-03 -5.7855e-05 -1.1582e-05 2.2352e-03 -6.9634e-05 6.2586e-06 6.8757e-03 -4.3717e-05 3.3115e-05 2.2590e-03 -5.1451e-05 4.3821e-05 6.7717e-03 -4.1411e-05 -5.3182e-05 2.3229e-03 -8.5237e-05 -1.5722e-05 6.7638e-03 -6.5623e-05 -5.0911e-06 2.3289e-03 -7.5398e-05 4.6047e-05 
5.6656e-03 3.9937e-05 5.9303e-06 1.0139e-03 3.5109e-05 1.7273e-04 5.6526e-03 6.4796e-05 -6.2353e-05 1.1850e-03 4.4237e-05 5.9538e-06 5.6284e-03 1.9136e-05 3.5103e-05 1.1766e-03 3.9973e-05 -1.5061e-05 5.5541e-03 5.9797e-05 4.5452e-06 1.1936e-03 5.5903e-05 -1.4559e-05 5.6645e-03 5.7813e-05 2.6124e-05 1.0389e-03 4.7815e-05 -1.4410e-04 
3.7654e-03 -2.2293e-05 -5.3586e-06 -7.6591e-04 -4.7917e-05 -1.3477e-05 3.7363e-03 -1.9632e-05 -1.8212e-05 -7.6004e-04 -5.3615e-05 7.3870e-06 3.6989e-03 -3.0666e-05 -9.7090e-06 -7.5629e-04 -8.3553e-05 1.6284e-05 3.6624e-03 -8.1008e-05 2.1014e-05 -8.1340e-04 -4.0678e-05 -8.6523e-05 3.7456e-03 -2.7214e-05 1.3801e-05 -8.0726e-04 -5.3134e-05 8.2087e-05 
0.0000e+00 0.0000e+00 0.0000e+00 0.0000e+00 0.0000e+00 0.0000e+00 0.0000e+00 0.0000e+00 0.0000e+00 0.0000e+00 0.0000e+00 0.0000e+00 0.0000e+00 0.0000e+00 0.0000e+00 0.0000e+00 0.0000e+00 0.0000e+00 0.0000e+00 0.0000e+00 0.0000e+00 0.0000e+00 0.0000e+00 0.0000e+00 0.0000e+00 0.0000e+00 0.0000e+00 0.0000e+00 0.0000e+00 0.0000e+00 
0.0000e+00 0.0000e+00 0.0000e+00 0.0000e+00 0.0000e+00 0.0000e+00 0.0000e+00 0.0000e+00 0.0000e+00 0.0000e+00 0.0000e+00 0.0000e+00 0.0000e+00 0.0000e+00 0.0000e+00 0.0000e+00 0.0000e+00 0.0000e+00 0.0000e+00 0.0000e+00 0.0000e+00 0.0000e+00 0.0000e+00 0.0000e+00 0.0000e+00 0.0000e+00 0.0000e+00 0.0000e+00 0.0000e+00 0.0000e+00 
3.8105e-03 7.3726e-05 -3.4938e-06 -9.5044e-04 5.1843e-05 1.7387e-05 3.8825e-03 -2.8873e-06 2.2899e-05 -9.1200e-04 5.4152e-05 1.6538e-05 3.8260e-03 7.5707e-05 4.5052e-06 -9.4051e-04 8.0275e-05 -3.5308e-06 3.1500e-03 4.6297e-05 4.3416e-06 -9.2894e-04 8.4064e-06 -1.9098e-05 3.8327e-03 -6.2434e-05 -2.0880e-05 -9.0948e-04 4.1862e-05 -2.0430e-05 
5.5924e-03 -2.3240e-04 -4.7884e-06 8.5982e-04 -2.7994e-05 2.8533e-05 5.6337e-03 1.0218e-04 4.3957e-05 8.9696e-04 1.1551e-04 3.8171e-05 5.6576e-03 5.3970e-05 1.6178e-05 7.5914e-04 -3.7103e-05 1.7783e-04 4.0059e-03 2.0633e-05 -4.8919e-05 7.2477e-04 -1.1801e-04 -2.1043e-04 5.7237e-03 -1.1383e-04 -3.9795e-05 8.3764e-04 -1.6658e-04 -3.7856e-05 
4.2192e-03 -3.5323e-05 -6.8965e-06 1.5401e-03 2.0764e-04 3.3419e-05 6.4276e-03 3.1273e-05 6.1676e-05 1.9309e-03 1.4596e-04 4.3735e-05 6.7495e-03 1.5919e-04 1.6427e-05 2.0158e-03 1.3431e-04 -1.9215e-05 6.9037e-03 2.7860e-05 -2.0026e-05 -9.7760e-04 4.9027e-06 -2.6392e-05 6.8191e-03 -2.4278e-06 -4.3678e-05 1.4080e-03 -2.8239e-04 -4.4382e-05 
7.0421e-03 5.6601e-05 -4.0517e-07 1.5244e-03 -8.8652e-05 2.8375e-05 7.0878e-03 -1.5569e-05 4.5647e-05 2.3075e-03 -2.8887e-05 3.0541e-05 7.2862e-03 -9.1507e-05 8.5856e-06 2.5404e-03 1.5367e-05 -1.1917e-05 7.3654e-03 -1.0295e-04 -1.8982e-05 2.5981e-03 -7.9397e-05 -2.3606e-05 7.2543e-03 -1.3561e-04 -2.7857e-05 1.9599e-03 -1.0051e-04 -2.2376e-05 
4.0997e-03 1.0862e-04 4.0776e-06 2.1077e-03 -1.7342e-04 2.0312e-05 7.2270e-03 -9.6680e-06 2.9184e-05 2.0441e-03 -8.2232e-05 1.7980e-05 7.3047e-03 1.9121e-05 -4.7006e-07 2.5906e-03 1.0007e-04 -1.0030e-05 7.2536e-03 3.4882e-05 -1.2430e-05 2.7022e-03 6.1512e-05 -1.1626e-05 7.1417e-03 8.1582e-05 -5.3288e-06 2.3959e-03 3.1979e-04 -4.8250e-06 
6.5606e-03 -4.0276e-07 6.0607e-06 1.9079e-03 2.2191e-04 1.4333e-05 6.6885e-03 -1.5574e-04 1.7861e-05 1.9946e-03 -1.1367e-04 8.9925e-06 6.7118e-03 -2.7349e-05 -3.1963e-06 2.1155e-03 -1.0200e-04 -1.0289e-05 6.6037e-03 -1.7246e-05 -7.6554e-06 2.2594e-03 -7.2672e-05 9.2906e-08 6.4485e-03 -7.3757e-05 7.3000e-06 -4.0916e-05 -1.8185e-04 3.4004e-05 
5.5534e-03 1.0503e-05 7.3665e-06 7.0196e-04 7.9565e-05 9.1428e-06 5.5470e-03 9.7289e-05 1.1018e-05 1.1065e-03 6.5390e-05 7.5396e-06 5.3690e-03 -2.8901e-05 9.6677e-07 1.0539e-03 -1.7789e-05 -6.2251e-06 5.4199e-03 9.7234e-05 -3.1808e-06 1.0664e-03 -3.0880e-05 3.3188e-06 5.5198e-03 5.9444e-05 6.6493e-06 7.1596e-04 1.2589e-04 4.8426e-06 
3.7133e-03 -5.1805e-05 3.8129e-06 -9.7895e-04 -2.1052e-04 5.5012e-06 3.7105e-03 -1.4597e-05 8.5920e-06 -7.7939e-04 -1.9287e-04 7.1646e-06 3.6265e-03 -3.3295e-05 4.9951e-07 -7.4658e-04 3.5941e-05 -3.0220e-06 3.5541e-03 -4.7308e-05 -1.2772e-06 -9.1198e-04 -1.3167e-05 2.5075e-06 3.8628e-03 -5.9687e-05 -9.9890e-07 -1.0841e-03 1.1706e-04 2.4676e-06 
0.0000e+00 0.0000e+00 0.0000e+00 0.0000e+00 0.0000e+00 0.0000e+00 0.0000e+00 0.0000e+00 0.0000e+00 0.0000e+00 0.0000e+00 0.0000e+00 0.0000e+00 0.0000e+00 0.0000e+00 0.0000e+00 0.0000e+00 0.0000e+00 0.0000e+00 0.0000e+00 0.0000e+00 0.0000e+00 0.0000e+00 0.0000e+00 0.0000e+00 0.0000e+00 0.0000e+00 0.0000e+00 0.0000e+00 0.0000e+00 
0.0000e+00 0.0000e+00 0.0000e+00 0.0000e+00 0.0000e+00 0.0000e+00 0.0000e+00 0.0000e+00 0.0000e+00 0.0000e+00 0.0000e+00 0.0000e+00 0.0000e+00 0.0000e+00 0.0000e+00 0.0000e+00 0.0000e+00 0.0000e+00 0.0000e+00 0.0000e+00 0.0000e+00 0.0000e+00 0.0000e+00 0.0000e+00 0.0000e+00 0.0000e+00 0.0000e+00 0.0000e+00 0.0000e+00 0.0000e+00 
3.7307e-03 3.8513e-05 -1.2398e-05 -9.9983e-04 2.9687e-05 2.7586e-05 3.7555e-03 2.2503e-05 1.4434e-05 -1.0246e-03 7.4952e-05 -9.8152e-06 3.7203e-03 5.5040e-05 -6.5652e-07 -1.0240e-03 6.6446e-05 -2.7369e-06 3.7202e-03 3.6987e-05 7.9043e-06 -9.9062e-04 4.8436e-05 -4.7044e-07 3.7211e-03 2.8961e-07 1.9541e-05 -1.0240e-03 1.6104e-05 1.0218e-05 
5.3677e-03 -1.1550e-04 5.3203e-05 6.4103e-04 -4.0428e-05 2.6553e-05 5.3874e-03 2.4388e-05 -1.9441e-05 6.6405e-04 3.6692e-05 -2.9389e-05 5.3713e-03 1.8556e-05 -2.3483e-05 6.6581e-04 -5.1058e-05 2.3528e-05 5.4469e-03 -5.5169e-05 4.3100e-06 6.5560e-04 -7.4064e-05 -2.1065e-06 5.4071e-03 -1.2105e-04 3.2710e-05 6.3012e-04 -1.0164e-04 2.6735e-05 
6.2246e-03 -1.3120e-05 1.7069e-04 1.4770e-03 5.9900e-05 1.7481e-05 6.2455e-03 7.5071e-05 -2.7728e-05 1.5696e-03 1.1412e-04 -7.1339e-05 6.3061e-03 1.1137e-04 -8.7293e-05 1.6362e-03 5.5306e-05 1.4943e-06 6.4388e-03 2.7082e-05 -4.0199e-07 1.5785e-03 1.3560e-05 3.5775e-05 6.3593e-03 4.7573e-06 1.3637e-05 1.5091e-03 -1.5047e-05 6.4039e-05 
6.6687e-03 -3.2606e-05 8.1399e-05 1.6696e-03 -4.6212e-05 -1.6241e-04 6.6990e-03 -3.5621e-05 -7.1292e-06 1.9306e-03 -2.9069e-05 -1.0507e-04 6.7810e-03 -3.3046e-05 -6.3031e-05 2.0536e-03 5.1805e-06 -4.8188e-05 6.8628e-03 -5.8895e-05 1.6607e-06 2.1086e-03 -8.6392e-05 4.1704e-05 6.7736e-03 -6.0142e-05 4.6412e-05 1.7531e-03 -6.9837e-05 3.2970e-04 
6.6762e-03 7.9571e-05 5.6628e-07 1.9746e-03 7.4704e-05 1.1599e-04 6.7721e-03 1.9450e-05 -4.3313e-05 1.9326e-03 -1.9238e-05 -5.5480e-05 6.8041e-03 4.6922e-05 6.3063e-06 2.0571e-03 7.1738e-05 -8.2465e-05 6.7838e-03 2.3752e-05 2.3853e-05 2.2019e-03 8.8466e-06 1.4267e-05 6.7024e-03 6.2041e-05 5.1786e-05 2.1078e-03 1.0317e-04 4.2691e-05 
6.2151e-03 9.5665e-06 1.1515e-05 1.6902e-03 -1.7614e-06 5.3619e-05 6.2935e-03 -7.1583e-05 1.4908e-05 1.6569e-03 -8.1015e-05 -1.0402e-05 6.2930e-03 -5.6623e-05 -4.1782e-05 1.6818e-03 -5.9517e-05 -6.8179e-05 6.2072e-03 -2.7483e-05 2.7940e-05 1.7691e-03 -5.7207e-05 4.8274e-06 6.2043e-03 -4.5331e-05 2.0317e-05 1.7575e-03 -7.1444e-05 -1.0467e-05 
5.2951e-03 3.4939e-05 6.2178e-06 6.1198e-04 2.5396e-05 -1.6084e-04 5.2753e-03 6.3167e-05 6.2652e-05 7.6151e-04 4.5936e-05 -2.2289e-05 5.2379e-03 1.5472e-05 -5.0079e-05 7.6423e-04 4.4725e-05 -9.4988e-06 5.1839e-03 7.2183e-05 -9.5183e-06 7.9112e-04 7.4679e-05 2.9216e-05 5.2764e-03 5.2401e-05 1.2890e-05 6.2076e-04 3.7190e-05 1.7599e-04 
3.6497e-03 -3.0425e-05 1.1222e-05 -9.3008e-04 -4.9490e-05 1.6010e-05 3.6199e-03 -1.8463e-05 1.6992e-05 -9.3404e-04 -4.9382e-05 -1.1721e-05 3.5709e-03 -2.9753e-05 -3.4362e-06 -9.2181e-04 -8.0768e-05 -2.7065e-05 3.5498e-03 -7.4620e-05 -1.8312e-05 -9.8365e-04 -3.7122e-05 1.1037e-04 3.6174e-03 -3.2688e-05 1.5408e-05 -9.7115e-04 -5.4826e-05 -7.2850e-05 
0.0000e+00 0.0000e+00 0.0000e+00 0.0000e+00 0.0000e+00 0.0000e+00 0.0000e+00 0.0000e+00 0.0000e+00 0.0000e+00 0.0000e+00 0.0000e+00 0.0000e+00 0.0000e+00 0.0000e+00 0.0000e+00 0.0000e+00 0.0000e+00 0.0000e+00 0.0000e+00 0.0000e+00 0.0000e+00 0.0000e+00 0.0000e+00 0.0000e+00 0.0000e+00 0.0000e+00 0.0000e+00 0.0000e+00 0.0000e+00 
0.0000e+00 0.0000e+00 0.0000e+00 0.0000e+00 0.0000e+00 0.0000e+00 0.0000e+00 0.0000e+00 0.0000e+00 0.0000e+00 0.0000e+00 0.0000e+00 0.0000e+00 0.0000e+00 0.0000e+00 0.0000e+00 0.0000e+00 0.0000e+00 0.0000e+00 0.0000e+00 0.0000e+00 0.0000e+00 0.0000e+00 0.0000e+00 0.0000e+00 0.0000e+00 0.0000e+00 0.0000e+00 0.0000e+00 0.0000e+00 
3.4791e-03 9.9915e-06 2.9278e-05 -1.2629e-03 4.1852e-05 1.6831e-05 3.4958e-03 3.8621e-05 -1.7956e-06 -1.2742e-03 7.2172e-05 -9.2256e-06 3.4539e-03 2.8911e-05 -3.6032e-07 -1.2589e-03 8.4147e-05 1.0687e-05 3.4552e-03 3.1435e-05 1.6227e-06 -1.2486e-03 1.6543e-05 -1.3106e-05 3.4639e-03 2.4071e-05 -2.2344e-05 -1.2681e-03 3.8129e-05 6.5556e-06 
4.7631e-03 -4.5457e-05 2.0270e-05 3.0298e-05 -6.3043e-05 5.0222e-05 4.7741e-03 -2.6075e-05 9.5637e-06 4.2258e-06 5.7310e-06 -3.0678e-05 4.7486e-03 -2.7379e-05 -1.8122e-06 1.6867e-05 -4.5677e-05 1.1361e-05 4.7128e-03 -5.6053e-05 -1.4212e-06 3.9832e-05 -5.0983e-05 -2.5747e-05 4.7614e-03 -8.9239e-05 1.8178e-05 1.1844e-06 -7.5434e-05 2.5414e-05 
5.4168e-03 1.0091e-05 6.9355e-05 6.9264e-04 5.6180e-05 3.6358e-05 5.4805e-03 1.0028e-04 -1.8549e-05 7.1727e-04 8.1863e-05 -5.3141e-05 5.4004e-03 6.2097e-05 -5.0363e-05 6.9344e-04 2.6851e-05 8.4276e-06 5.4511e-03 3.0613e-05 -5.9260e-06 6.8296e-04 4.3054e-05 1.1509e-05 5.4334e-03 1.2713e-05 5.8297e-05 7.2698e-04 2.2080e-05 3.8822e-05 
5.7516e-03 -6.6582e-05 7.9537e-05 1.0905e-03 -3.5352e-07 3.9278e-05 5.7719e-03 -4.3198e-05 -2.5798e-05 9.8793e-04 -3.9337e-05 -9.3030e-05 5.7234e-03 1.4644e-06 -5.6167e-05 1.0169e-03 -4.1744e-05 -6.4536e-06 5.7535e-03 -5.4850e-05 -1.7989e-06 1.0409e-03 -7.1056e-05 -1.1545e-05 5.7324e-03 -4.4571e-05 3.7505e-05 1.0042e-03 -5.1274e-05 8.4955e-05 
5.7386e-03 8.0806e-05 6.6863e-05 1.0420e-03 5.5294e-05 7.8481e-05 5.7518e-03 2.1918e-05 3.2079e-05 1.0728e-03 4.1963e-05 -1.8078e-05 5.7170e-03 4.9534e-05 -7.5495e-05 9.8011e-04 5.0726e-05 -6.7008e-05 5.7168e-03 4.1331e-05 -3.8926e-07 1.0631e-03 1.2980e-05 1.6429e-05 5.7224e-03 3.7689e-05 1.5065e-05 1.0732e-03 6.8488e-05 1.4156e-05 
5.3737e-03 -2.8412e-05 -9.4329e-07 8.0053e-04 -4.8020e-05 1.6706e-05 5.4194e-03 -1.6759e-05 2.5503e-05 7.5709e-04 -6.6972e-05 4.8634e-06 5.3770e-03 -7.1271e-05 -3.9734e-05 7.3830e-04 -2.5746e-05 -2.8719e-05 5.3354e-03 -4.3554e-05 3.0447e-05 7.6121e-04 -4.4212e-05 4.0284e-05 5.4033e-03 -4.5227e-05 1.5457e-05 7.8341e-04 -3.1210e-05 -1.1807e-05 
4.6868e-03 5.1906e-05 2.6046e-05 9.6396e-05 3.8313e-05 1.3134e-05 4.6697e-03 3.2810e-05 3.3699e-05 6.5086e-05 3.1870e-05 2.6407e-05 4.6538e-03 4.2690e-05 -9.6993e-06 3.4897e-05 3.9144e-05 -5.2447e-05 4.6138e-03 4.5759e-05 -4.5186e-05 6.4889e-05 7.2412e-05 1.7134e-05 4.6773e-03 5.7676e-05 1.2906e-05 9.7481e-05 3.0461e-05 -1.9298e-06 
3.4060e-03 -4.1161e-05 3.9771e-06 -1.1859e-03 -4.9065e-05 6.5333e-06 3.4029e-03 -3.7125e-05 7.1387e-06 -1.2002e-03 -3.1461e-05 1.9607e-05 3.3754e-03 -3.4985e-05 2.6612e-06 -1.2247e-03 -7.3459e-05 -2.6264e-05 3.3671e-03 -4.6064e-05 -1.0969e-05 -1.2012e-03 -5.4726e-05 -4.2683e-06 3.3902e-03 -2.3464e-05 1.6124e-06 -1.1888e-03 -5.0625e-05 1.1187e-05 
0.0000e+00 0.0000e+00 0.0000e+00 0.0000e+00 0.0000e+00 0.0000e+00 0.0000e+00 0.0000e+00 0.0000e+00 0.0000e+00 0.0000e+00 0.0000e+00 0.0000e+00 0.0000e+00 0.0000e+00 0.0000e+00 0.0000e+00 0.0000e+00 0.0000e+00 0.0000e+00 0.0000e+00 0.0000e+00 0.0000e+00 0.0000e+00 0.0000e+00 0.0000e+00 0.0000e+00 0.0000e+00 0.0000e+00 0.0000e+00 
0.0000e+00 0.0000e+00 0.0000e+00 0.0000e+00 0.0000e+00 0.0000e+00 0.0000e+00 0.0000e+00 0.0000e+00 0.0000e+00 0.0000e+00 0.0000e+00 0.0000e+00 0.0000e+00 0.0000e+00 0.0000e+00 0.0000e+00 0.0000e+00 0.0000e+00 0.0000e+00 0.0000e+00 0.0000e+00 0.0000e+00 0.0000e+00 0.0000e+00 0.0000e+00 0.0000e+00 0.0000e+00 0.0000e+00 0.0000e+00 
2.9516e-03 3.6137e-05 1.7218e-06 -1.8110e-03 3.9991e-05 2.0267e-06 2.9501e-03 4.4529e-05 2.6305e-06 -1.8023e-03 5.9263e-05 -1.4150e-05 2.9337e-03 3.7027e-05 5.4787e-06 -1.7977e-03 4.2604e-05 2.3454e-06 2.9175e-03 3.7775e-05 1.0645e-05 -1.7975e-03 4.5866e-05 2.7211e-06 2.9387e-03 4.6687e-05 7.2651e-07 -1.7965e-03 4.1883e-05 1.1918e-06 
3.4904e-03 -6.2036e-05 3.0882e-05 -1.2618e-03 -4.5924e-05 5.7524e-06 3.4955e-03 -2.5271e-05 5.1973e-07 -1.2667e-03 -2.6900e-05 -2.4773e-05 3.4648e-03 -3.3194e-05 1.9771e-05 -1.2556e-03 -4.5938e-05 -3.9259e-05 3.4527e-03 -5.0158e-05 1.8305e-05 -1.2499e-03 -4.8090e-05 3.4687e-05 3.4755e-03 -4.9902e-05 -8.5652e-06 -1.2603e-03 -5.4055e-05 2.3168e-06 
3.7616e-03 3.5873e-05 5.0136e-05 -9.6678e-04 4.6942e-05 1.6226e-05 3.7744e-03 6.0829e-05 -7.7971e-06 -9.9839e-04 5.9479e-05 -3.6963e-05 3.7314e-03 4.9459e-05 -6.5585e-06 -1.0097e-03 3.9844e-05 -1.6830e-05 3.7251e-03 3.6374e-05 1.4002e-05 -9.9130e-04 3.9395e-05 -1.2880e-06 3.7429e-03 3.3227e-05 2.3862e-05 -9.9887e-04 3.4417e-05 2.4446e-05 
3.8714e-03 -3.6868e-05 4.8803e-05 -8.3663e-04 -3.2697e-05 1.4682e-05 3.8809e-03 -3.3939e-05 -8.1981e-06 -8.7806e-04 -3.5310e-05 -4.4153e-05 3.8356e-03 -3.6521e-05 -3.3163e-06 -8.9165e-04 -4.2965e-05 -3.7203e-06 3.8376e-03 -4.8279e-05 5.8365e-06 -8.7843e-04 -5.4347e-05 -1.6107e-05 3.8505e-03 -5.6001e-05 2.4090e-05 -8.6114e-04 -4.6041e-05 1.8656e-05 
3.8567e-03 5.2209e-05 3.9179e-05 -8.3065e-04 4.9630e-05 6.0039e-06 3.8591e-03 3.9442e-05 -7.6429e-07 -8.5876e-04 4.3890e-05 -2.7077e-05 3.8213e-03 4.9888e-05 1.1704e-06 -8.8295e-04 4.4868e-05 -1.7523e-05 3.8164e-03 4.1969e-05 2.5552e-06 -8.6712e-04 4.0023e-05 -1.4149e-05 3.8424e-03 4.1180e-05 8.9946e-06 -8.4254e-04 4.5308e-05 8.0298e-06 
3.7208e-03 -3.7400e-05 2.2265e-05 -9.3711e-04 -4.4947e-05 6.6465e-06 3.7251e-03 -4.6958e-05 5.6950e-06 -9.5883e-04 -4.5198e-05 -2.2157e-05 3.6853e-03 -4.5035e-05 6.5552e-07 -9.8535e-04 -4.4592e-05 -1.1041e-05 3.6805e-03 -4.5684e-05 3.4703e-06 -9.6664e-04 -4.1641e-05 -1.5585e-05 3.7075e-03 -3.7484e-05 3.7227e-06 -9.4025e-04 -3.9607e-05 -8.2750e-06 