<?xml version="1.0"?>
<!-- openLBMflow v1.0.1, www.lbmflow.com -->
<VTKFile type="ImageData" version="0.1" byte_order="LittleEndian">
  <ImageData WholeExtent="0 9 0 9 0 9" Origin="0 0 0" Spacing="1 1 1">
  <Piece Extent="0 9 0 9 0 9">
    <PointData Scalars="scalars">
      <DataArray type="Float32" Name="Velocity" NumberOfComponents="3" format="ascii">
0.0000e+00 0.0000e+00 0.0000e+00 0.0000e+00 0.0000e+00 0.0000e+00 0.0000e+00 0.0000e+00 0.0000e+00 0.0000e+00 0.0000e+00 0.0000e+00 0.0000e+00 0.0000e+00 0.0000e+00 0.0000e+00 0.0000e+00 0.0000e+00 0.0000e+00 0.0000e+00 0.0000e+00 0.0000e+00 0.0000e+00 0.0000e+00 0.0000e+00 0.0000e+00 0.0000e+00 0.0000e+00 0.0000e+00 0.0000e+00 
0.0000e+00 0.0000e+00 0.0000e+00 0.0000e+00 0.0000e+00 0.0000e+00 0.0000e+00 0.0000e+00 0.0000e+00 0.0000e+00 0.0000e+00 0.0000e+00 0.0000e+00 0.0000e+00 0.0000e+00 0.0000e+00 0.0000e+00 0.0000e+00 0.0000e+00 0.0000e+00 0.0000e+00 0.0000e+00 0.0000e+00 0.0000e+00 0.0000e+00 0.0000e+00 0.0000e+00 0.0000e+00 0.0000e+00 0.0000e+00 
0.0000e+00 0.0000e+00 0.0000e+00 0.0000e+00 0.0000e+00 0.0000e+00 0.0000e+00 0.0000e+00 0.0000e+00 0.0000e+00 0.0000e+00 0.0000e+00 0.0000e+00 0.0000e+00 0.0000e+00 0.0000e+00 0.0000e+00 0.0000e+00 0.0000e+00 0.0000e+00 0.0000e+00 0.0000e+00 0.0000e+00 0.0000e+00 0.0000e+00 0.0000e+00 0.0000e+00 0.0000e+00 0.0000e+00 0.0000e+00 
0.0000e+00 0.0000e+00 0.0000e+00 0.0000e+00 0.0000e+00 0.0000e+00 0.0000e+00 0.0000e+00 0.0000e+00 0.0000e+00 0.0000e+00 0.0000e+00 0.0000e+00 0.0000e+00 0.0000e+00 0.0000e+00 0.0000e+00 0.0000e+00 0.0000e+00 0.0000e+00 0.0000e+00 0.0000e+00 0.0000e+00 0.0000e+00 0.0000e+00 0.0000e+00 0.0000e+00 0.0000e+00 0.0000e+00 0.0000e+00 
0.0000e+00 0.0000e+00 0.0000e+00 0.0000e+00 0.0000e+00 0.0000e+00 0.0000e+00 0.0000e+00 0.0000e+00 0.0000e+00 0.0000e+00 0.0000e+00 0.0000e+00 0.0000e+00 0.0000e+00 0.0000e+00 0.0000e+00 0.0000e+00 0.0000e+00 0.0000e+00 0.0000e+00 0.0000e+00 0.0000e+00 0.0000e+00 0.0000e+00 0.0000e+00 0.0000e+00 0.0000e+00 0.0000e+00 0.0000e+00 
0.0000e+00 0.0000e+00 0.0000e+00 0.0000e+00 0.0000e+00 0.0000e+00 0.0000e+00 0.0000e+00 0.0000e+00 0.0000e+00 0.0000e+00 0.0000e+00 0.0000e+00 0.0000e+00 0.0000e+00 0.0000e+00 0.0000e+00 0.0000e+00 0.0000e+00 0.0000e+00 0.0000e+00 0.0000e+00 0.0000e+00 0.0000e+00 0.0000e+00 0.0000e+00 0.0000e+00 0.0000e+00 0.0000e+00 0.0000e+00 
0.0000e+00 0.0000e+00 0.0000e+00 0.0000e+00 0.0000e+00 0.0000e+00 0.0000e+00 0.0000e+00 0.0000e+00 0.0000e+00 0.0000e+00 0.0000e+00 0.0000e+00 0.0000e+00 0.0000e+00 0.0000e+00 0.0000e+00 0.0000e+00 0.0000e+00 0.0000e+00 0.0000e+00 0.0000e+00 0.0000e+00 0.0000e+00 0.0000e+00 0.0000e+00 0.0000e+00 0.0000e+00 0.0000e+00 0.0000e+00 
0.0000e+00 0.0000e+00 0.0000e+00 0.0000e+00 0.0000e+00 0.0000e+00 0.0000e+00 0.0000e+00 0.0000e+00 0.0000e+00 0.0000e+00 0.0000e+00 0.0000e+00 0.0000e+00 0.0000e+00 0.0000e+00 0.0000e+00 0.0000e+00 0.0000e+00 0.0000e+00 0.0000e+00 0.0000e+00 0.0000e+00 0.0000e+00 0.0000e+00 0.0000e+00 0.0000e+00 0.0000e+00 0.0000e+00 0.0000e+00 
0.0000e+00 0.0000e+00 0.0000e+00 0.0000e+00 0.0000e+00 0.0000e+00 0.0000e+00 0.0000e+00 0.0000e+00 0.0000e+00 0.0000e+00 0.0000e+00 0.0000e+00 0.0000e+00 0.0000e+00 0.0000e+00 0.0000e+00 0.0000e+00 0.0000e+00 0.0000e+00 0.0000e+00 0.0000e+00 0.0000e+00 0.0000e+00 0.0000e+00 0.0000e+00 0.0000e+00 0.0000e+00 0.0000e+00 0.0000e+00 
0.0000e+00 0.0000e+00 0.0000e+00 0.0000e+00 0.0000e+00 0.0000e+00 0.0000e+00 0.0000e+00 0.0000e+00 0.0000e+00 0.0000e+00 0.0000e+00 0.0000e+00 0.0000e+00 0.0000e+00 0.0000e+00 0.0000e+00 0.0000e+00 0.0000e+00 0.0000e+00 0.0000e+00 0.0000e+00 0.0000e+00 0.0000e+00 0.0000e+00 0.0000e+00 0.0000e+00 0.0000e+00 0.0000e+00 0.0000e+00 
0.0000e+00 0.0000e+00 0.0000e+00 0.0000e+00 0.0000e+00 0.0000e+00 0.0000e+00 0.0000e+00 0.0000e+00 0.0000e+00 0.0000e+00 0.0000e+00 0.0000e+00 0.0000e+00 0.0000e+00 0.0000e+00 0.0000e+00 0.0000e+00 0.0000e+00 0.0000e+00 0.0000e+00 0.0000e+00 0.0000e+00 0.0000e+00 0.0000e+00 0.0000e+00 0.0000e+00 0.0000e+00 0.0000e+00 0.0000e+00 
2.5880e-03 6.2765e-05 5.9912e-06 -1.4346e-03 8.3633e-05 2.6479e-05 2.6101e-03 5.3750e-05 3.0845e-05 -1.3469e-03 4.2511e-05 4.4304e-05 2.6882e-03 2.0216e-04 -1.9299e-05 -1.0862e-03 1.5815e-04 -6.2340e-06 2.7658e-03 -1.4077e-04 -1.1186e-06 -1.1061e-03 -1.7609e-04 -1.9119e-05 2.3016e-03 4.4213e-05 2.7972e-06 -1.2644e-03 2.8161e-05 -7.9430e-06 
3.1881e-03 -7.2239e-05 5.1976e-07 -8.1947e-04 -7.9508e-06 4.6601e-05 3.3925e-03 2.1939e-04 8.5547e-06 -7.1657e-04 -4.9184e-05 1.7496e-05 3.7499e-03 -2.3872e-04 1.7640e-05 -7.7109e-04 -3.7642e-05 -1.9295e-05 3.2584e-03 -5.5852e-05 -2.2321e-05 -4.4922e-04 -1.4903e-04 -5.2869e-05 3.2348e-03 -8.1246e-06 -1.9052e-05 -8.1248e-04 7.3629e-05 4.1798e-05 
3.7650e-03 -2.2427e-04 -4.8665e-05 -4.2625e-04 6.6372e-05 4.6730e-05 4.1888e-03 3.9811e-04 3.8914e-05 -9.2631e-04 5.4089e-05 7.9467e-06 4.4002e-03 -4.6492e-04 -1.3510e-05 -2.7197e-04 -1.5320e-04 1.3959e-05 3.7247e-03 1.6643e-04 -2.1422e-05 -3.4000e-04 1.8505e-04 -9.1064e-05 3.8623e-03 2.9616e-04 3.8835e-06 -6.3378e-04 3.3173e-05 7.5619e-05 
4.0133e-03 5.5498e-05 -2.7956e-05 -1.6117e-04 -2.1005e-05 3.4655e-05 4.2673e-03 -2.5668e-04 6.7032e-05 -8.4679e-04 -1.8908e-05 -6.8774e-07 4.3136e-03 2.0359e-04 -5.0675e-05 -1.6225e-04 -3.3033e-06 3.5123e-05 3.5082e-03 -6.7568e-05 -3.7726e-05 -1.8449e-04 -5.0227e-05 -5.3517e-05 4.0371e-03 -9.3851e-05 1.0162e-05 -7.7831e-04 -6.9090e-05 3.3902e-05 
3.5449e-03 3.4552e-04 6.0403e-05 -6.5960e-05 5.6319e-05 2.6841e-05 3.5974e-03 -2.6078e-04 3.8240e-06 -3.7603e-05 1.2435e-04 3.2063e-05 3.5514e-03 3.5988e-04 -1.4997e-05 6.2838e-05 -9.7985e-06 1.8610e-05 3.5342e-03 2.6538e-04 -5.9634e-05 1.2370e-04 4.7064e-05 -1.6318e-05 3.7159e-03 -5.0157e-04 -1.2113e-06 5.7793e-05 -2.7406e-05 -4.5065e-08 
3.0298e-03 -6.6677e-05 7.0778e-05 5.2218e-05 -1.9192e-04 2.2515e-06 3.0936e-03 3.9789e-06 -2.5457e-05 6.5950e-06 -2.8711e-05 8.0611e-05 2.9092e-03 -5.8547e-05 -5.3543e-06 9.1574e-05 -3.8570e-05 -2.0515e-05 3.5351e-03 -3.6285e-05 -7.1780e-05 -3.5805e-04 -6.5564e-05 -3.4324e-05 3.3948e-03 -5.1286e-05 9.3573e-06 2.0882e-04 1.0811e-04 -3.7984e-05 
2.4192e-03 3.4755e-05 1.6842e-05 -6.8320e-05 6.5072e-05 2.2019e-06 4.6242e-03 5.4547e-05 9.9224e-06 -4.2713e-04 -2.9175e-05 2.0228e-05 2.7427e-03 2.9565e-05 -4.9349e-05 -2.0317e-04 1.3761e-04 -3.3327e-06 2.9596e-03 3.2410e-05 -3.9897e-06 -1.8600e-04 -4.4473e-05 2.2721e-05 2.9191e-03 2.7694e-04 4.4792e-06 2.2462e-07 6.8899e-05 -1.4159e-05 
2.1977e-03 -1.0673e-04 7.2531e-06 -8.7065e-04 9.3804e-05 2.6916e-06 2.2189e-03 -8.6896e-05 -2.4923e-05 -1.0634e-03 3.8562e-06 -3.4203e-06 2.2541e-03 4.8670e-05 1.6511e-05 -8.9941e-04 -1.1671e-04 8.0098e-07 1.9756e-03 -3.5279e-05 -1.7612e-05 -8.8117e-04 -3.8968e-05 -1.4544e-05 2.1856e-03 -1.7045e-05 4.7827e-06 -8.3911e-04 -1.8981e-04 1.8250e-05 
0.0000e+00 0.0000e+00 0.0000e+00 0.0000e+00 0.0000e+00 0.0000e+00 0.0000e+00 0.0000e+00 0.0000e+00 0.0000e+00 0.0000e+00 0.0000e+00 0.0000e+00 0.0000e+00 0.0000e+00 0.0000e+00 0.0000e+00 0.0000e+00 0.0000e+00 0.0000e+00 0.0000e+00 0.0000e+00 0.0000e+00 0.0000e+00 0.0000e+00 0.0000e+00 0.0000e+00 0.0000e+00 0.0000e+00 0.0000e+00 
0.0000e+00 0.0000e+00 0.0000e+00 0.0000e+00 0.0000e+00 0.0000e+00 0.0000e+00 0.0000e+00 0.0000e+00 0.0000e+00 0.0000e+00 0.0000e+00 0.0000e+00 0.0000e+00 0.0000e+00 0.0000e+00 0.0000e+00 0.0000e+00 0.0000e+00 0.0000e+00 0.0000e+00 0.0000e+00 0.0000e+00 0.0000e+00 0.0000e+00 0.0000e+00 0.0000e+00 0.0000e+00 0.0000e+00 0.0000e+00 
3.1224e-03 3.1250e-05 -6.6343e-06 -8.4185e-04 6.6931e-05 2.6449e-05 3.1571e-03 7.0132e-05 2.7076e-05 -8.0794e-04 5.7983e-05 -2.1961e-05 3.1848e-03 2.0994e-05 3.2788e-05 -8.0644e-04 2.2657e-05 1.1293e-05 3.1885e-03 6.4697e-06 -3.6432e-05 -7.8923e-04 4.4994e-05 -9.6245e-05 3.1431e-03 -1.1614e-05 4.8553e-06 -8.4107e-04 3.6844e-05 8.5579e-05 
4.5106e-03 -2.9486e-05 4.0729e-05 5.5655e-04 -4.0810e-06 4.3848e-05 4.5332e-03 -1.4121e-05 5.5998e-05 5.9100e-04 -1.8853e-05 3.4942e-05 4.7616e-03 -5.3428e-05 -1.6674e-04 7.5619e-04 -5.7605e-05 -1.7121e-04 4.8122e-03 -5.2156e-05 1.3208e-04 6.8406e-04 -6.1005e-05 1.4263e-04 4.5452e-03 -4.5015e-05 -4.6096e-05 4.7306e-04 -2.0736e-05 -1.6097e-05 
5.3208e-03 5.3759e-05 1.2801e-04 1.3733e-03 8.6851e-05 5.0326e-05 5.5448e-03 1.0404e-04 -2.2909e-04 1.3746e-03 8.4691e-05 4.7184e-05 5.5671e-03 2.2948e-05 2.8190e-04 1.4048e-03 6.5029e-06 2.9272e-06 5.4028e-03 -1.4559e-05 -6.8015e-05 1.3427e-03 2.8207e-06 -4.6339e-05 5.3508e-03 1.6131e-05 -1.0495e-04 1.2839e-03 1.8633e-05 -4.4007e-05 
5.8247e-03 -1.0882e-06 3.6520e-04 1.8345e-03 8.5357e-06 5.3296e-05 5.8487e-03 2.8447e-05 -3.1335e-04 1.7862e-03 6.7658e-06 4.2018e-05 5.8502e-03 -1.9287e-05 3.5233e-04 1.8627e-03 -4.1187e-05 -2.8883e-05 5.6521e-03 -8.2298e-05 -6.5412e-05 1.8616e-03 -8.2000e-05 -6.0844e-05 5.8081e-03 -8.3377e-05 -3.3283e-04 1.7772e-03 -5.6518e-05 -4.9650e-06 
5.4009e-03 6.6843e-05 2.9360e-05 1.9607e-03 8.5808e-05 4.6138e-05 5.4175e-03 8.2945e-05 9.2063e-06 1.9267e-03 8.6966e-05 -1.9039e-05 5.4139e-03 7.0062e-05 1.5533e-05 2.0506e-03 3.6351e-05 -1.3736e-05 5.4646e-03 5.2706e-06 -3.1182e-05 2.0693e-03 -3.0548e-05 -7.4860e-05 5.3532e-03 -9.3878e-06 -3.7879e-05 1.9702e-03 8.6046e-06 5.5694e-05 
4.9389e-03 -3.8996e-05 1.2899e-05 1.6866e-03 -3.4074e-05 4.1002e-05 4.9670e-03 -5.6935e-06 2.2442e-05 1.6918e-03 -8.1425e-06 -9.7887e-05 4.9529e-03 -1.3780e-05 -1.7666e-05 1.8328e-03 -2.2726e-05 5.4944e-05 5.2483e-03 -5.3717e-05 -2.6565e-04 1.8512e-03 -7.8500e-05 -8.0768e-05 5.1747e-03 -6.9934e-05 2.5001e-04 1.7266e-03 -4.6773e-05 9.3327e-05 
4.1582e-03 5.0210e-05 1.2028e-05 1.0552e-03 5.5374e-05 1.6491e-04 4.2040e-03 5.3622e-05 -3.8181e-05 8.6249e-04 2.7396e-05 -1.9250e-05 4.2001e-03 4.5468e-05 4.1986e-05 9.7923e-04 4.3529e-05 4.4647e-06 4.2171e-03 3.4969e-05 -1.4232e-05 9.9331e-04 3.6796e-05 -3.2547e-05 4.1323e-03 1.4593e-05 -1.4649e-05 1.0587e-03 4.2201e-05 -1.1032e-04 
2.8327e-03 -4.3115e-05 -5.6031e-06 -5.3167e-04 -3.8254e-05 -6.0308e-06 2.8530e-03 -6.3299e-05 -1.3015e-05 -5.5131e-04 -3.2909e-05 1.2208e-05 2.8595e-03 -2.0062e-05 4.3536e-06 -4.6267e-04 -6.9491e-05 -6.5927e-05 2.8670e-03 -2.8284e-05 -3.8345e-06 -4.4442e-04 -4.9560e-05 5.1103e-05 2.8196e-03 -2.9552e-05 8.4667e-06 -5.2960e-04 -4.7851e-05 7.1414e-06 
0.0000e+00 0.0000e+00 0.0000e+00 0.0000e+00 0.0000e+00 0.0000e+00 0.0000e+00 0.0000e+00 0.0000e+00 0.0000e+00 0.0000e+00 0.0000e+00 0.0000e+00 0.0000e+00 0.0000e+00 0.0000e+00 0.0000e+00 0.0000e+00 0.0000e+00 0.0000e+00 0.0000e+00 0.0000e+00 0.0000e+00 0.0000e+00 0.0000e+00 0.0000e+00 0.0000e+00 0.0000e+00 0.0000e+00 0.0000e+00 
0.0000e+00 0.0000e+00 0.0000e+00 0.0000e+00 0.0000e+00 0.0000e+00 0.0000e+00 0.0000e+00 0.0000e+00 0.0000e+00 0.0000e+00 0.0000e+00 0.0000e+00 0.0000e+00 0.0000e+00 0.0000e+00 0.0000e+00 0.0000e+00 0.0000e+00 0.0000e+00 0.0000e+00 0.0000e+00 0.0000e+00 0.0000e+00 0.0000e+00 0.0000e+00 0.0000e+00 0.0000e+00 0.0000e+00 0.0000e+00 
3.3888e-03 2.1898e-05 3.1921e-05 -6.3415e-04 4.8038e-05 1.8863e-05 3.4251e-03 5.8896e-05 1.6617e-05 -6.0387e-04 4.6047e-05 3.1512e-05 3.5026e-03 3.4538e-05 2.7404e-05 -6.4829e-04 3.6462e-07 -8.7595e-06 3.4962e-03 3.6154e-06 -1.7215e-05 -6.6730e-04 6.7557e-05 -2.4430e-05 3.4449e-03 1.1839e-05 -5.3877e-05 -6.7789e-04 4.7036e-05 -7.0584e-06 
5.1572e-03 -6.4950e-06 4.5784e-05 1.1740e-03 -6.8064e-06 6.2247e-05 5.2078e-03 7.4348e-07 4.8692e-05 1.1909e-03 -1.2179e-05 6.0760e-05 5.2712e-03 -5.7403e-05 3.8454e-05 1.1944e-03 -4.9228e-05 -5.6590e-06 5.3009e-03 -6.2456e-05 -4.5536e-05 1.1367e-03 -5.2483e-05 -8.8906e-05 5.1824e-03 -4.6418e-05 -6.6281e-05 1.1099e-03 -4.2112e-05 -6.9130e-07 
6.2026e-03 6.8437e-05 4.6635e-05 2.2535e-03 8.9843e-05 6.2546e-05 6.2191e-03 6.6485e-05 8.2270e-05 2.2760e-03 6.9812e-05 4.9113e-05 6.2620e-03 4.3238e-05 2.4804e-05 2.3068e-03 4.0661e-06 6.1155e-06 6.3083e-03 -3.6279e-05 -9.9570e-05 2.2685e-03 -8.5878e-06 -9.4413e-05 6.1877e-03 3.2370e-05 -2.1777e-05 2.2272e-03 2.9613e-05 1.8651e-05 
6.5962e-03 -3.2651e-05 5.3802e-05 2.8031e-03 8.8328e-06 8.3832e-05 6.6115e-03 3.0520e-05 7.8237e-05 2.8325e-03 1.2748e-05 3.3688e-05 6.6170e-03 -2.2641e-05 1.2568e-06 2.8249e-03 -5.6412e-05 -6.1680e-05 6.6965e-03 -6.5660e-05 -1.1990e-04 2.8691e-03 -9.3772e-05 -9.2863e-05 6.5704e-03 -6.8367e-05 1.9815e-05 2.7537e-03 -3.0752e-05 8.4176e-05 
6.4671e-03 2.9288e-05 7.1035e-05 2.9463e-03 7.6124e-05 7.0421e-05 6.4936e-03 1.1080e-04 5.1371e-05 2.8881e-03 6.3998e-05 3.2132e-05 6.5092e-03 4.0787e-05 -3.5555e-07 3.0036e-03 4.9652e-05 -2.4086e-05 6.5597e-03 4.0337e-05 -9.5918e-05 2.9726e-03 -2.8035e-05 -7.1845e-05 6.4686e-03 -3.0340e-05 2.0006e-06 2.8855e-03 2.3983e-05 3.3286e-05 
5.9267e-03 -1.5716e-05 5.9943e-05 2.5382e-03 -2.0031e-05 5.2633e-05 5.9347e-03 -3.0043e-05 2.8787e-05 2.4740e-03 -1.8565e-06 2.4183e-05 5.9892e-03 8.0678e-06 1.0177e-05 2.5949e-03 -2.8231e-05 -4.2170e-05 6.0007e-03 -5.4596e-05 -6.0038e-05 2.5752e-03 -6.2050e-05 -2.5671e-05 5.9400e-03 -6.5252e-05 -1.2987e-05 2.4798e-03 -5.8068e-05 3.0982e-05 
4.9057e-03 5.2956e-05 4.1472e-05 1.4499e-03 3.5981e-05 4.0897e-05 4.9159e-03 3.3223e-05 2.4563e-06 1.4659e-03 5.8852e-05 1.2276e-05 4.9190e-03 4.6708e-05 2.9020e-06 1.5073e-03 2.0816e-05 -3.2077e-05 4.9927e-03 3.4438e-05 -2.6709e-05 1.5163e-03 3.9493e-05 -9.2670e-06 4.8912e-03 2.5858e-05 -3.1232e-06 1.4556e-03 2.2864e-05 1.1980e-05 
3.1468e-03 -4.8315e-05 1.8412e-05 -3.5499e-04 -4.3147e-05 1.0781e-05 3.1651e-03 -1.7440e-06 4.7990e-06 -3.6327e-04 -6.6094e-05 8.3836e-06 3.1436e-03 -4.8070e-05 -8.1966e-06 -3.2985e-04 -2.0965e-05 -6.9278e-06 3.2041e-03 -2.2512e-05 -9.3161e-06 -3.2717e-04 -5.6315e-05 -3.8750e-06 3.1378e-03 -2.2676e-05 -2.4437e-07 -3.5255e-04 -2.8574e-05 2.1398e-06 
0.0000e+00 0.0000e+00 0.0000e+00 0.0000e+00 0.0000e+00 0.0000e+00 0.0000e+00 0.0000e+00 0.0000e+00 0.0000e+00 0.0000e+00 0.0000e+00 0.0000e+00 0.0000e+00 0.0000e+00 0.0000e+00 0.0000e+00 0.0000e+00 0.0000e+00 0.0000e+00 0.0000e+00 0.0000e+00 0.0000e+00 0.0000e+00 0.0000e+00 0.0000e+00 0.0000e+00 0.0000e+00 0.0000e+00 0.0000e+00 
0.0000e+00 0.0000e+00 0.0000e+00 0.0000e+00 0.0000e+00 0.0000e+00 0.0000e+00 0.0000e+00 0.0000e+00 0.0000e+00 0.0000e+00 0.0000e+00 0.0000e+00 0.0000e+00 0.0000e+00 0.0000e+00 0.0000e+00 0.0000e+00 0.0000e+00 0.0000e+00 0.0000e+00 0.0000e+00 0.0000e+00 0.0000e+00 0.0000e+00 0.0000e+00 0.0000e+00 0.0000e+00 0.0000e+00 0.0000e+00 
3.5006e-03 3.1760e-05 1.3431e-05 -6.0826e-04 5.7883e-05 1.3471e-05 3.5466e-03 5.2993e-05 3.7192e-05 -5.9232e-04 3.9155e-05 8.0215e-06 3.5626e-03 2.0705e-05 -4.2489e-05 -6.1200e-04 1.9779e-05 2.6868e-05 3.5597e-03 9.2078e-06 2.3848e-05 -6.0863e-04 4.2354e-05 -2.0445e-05 3.5346e-03 9.3723e-06 -3.0286e-05 -5.9268e-04 5.8080e-05 -1.8368e-05 
5.3905e-03 -1.3303e-05 2.6266e-05 1.3432e-03 1.9646e-06 4.8218e-05 5.4212e-03 6.2516e-06 3.4879e-05 1.3901e-03 -1.3938e-05 4.2347e-05 5.5002e-03 -5.5836e-05 5.4617e-05 1.4049e-03 -5.3582e-05 2.8948e-05 5.4953e-03 -9.9386e-05 -5.6701e-05 1.3560e-03 -6.7673e-05 -8.0619e-05 5.4271e-03 1.5009e-06 -2.0971e-05 1.3306e-03 -1.4612e-05 -1.9284e-05 
6.4673e-03 6.5827e-05 3.7185e-05 2.5631e-03 8.9067e-05 4.4762e-05 6.5166e-03 8.9366e-05 3.7548e-05 2.3193e-03 5.1851e-05 -2.0699e-04 6.5615e-03 5.2331e-06 4.3671e-05 2.3262e-03 -3.4700e-05 2.4316e-04 6.5617e-03 -4.6602e-05 -6.3144e-05 2.5357e-03 5.2897e-06 -7.6516e-05 6.4836e-03 4.7693e-05 -2.7656e-05 2.4658e-03 7.2520e-05 2.3142e-05 
6.9066e-03 -8.5138e-06 3.7054e-05 3.1694e-03 1.6681e-05 4.3738e-05 6.9365e-03 1.6952e-05 4.2468e-05 3.1629e-03 5.0936e-06 4.2029e-05 6.9707e-03 -2.1565e-05 1.9518e-05 3.1392e-03 -5.8083e-05 -4.6461e-05 6.9635e-03 -7.0539e-05 -3.9730e-05 3.0818e-03 -7.1678e-05 -6.3811e-05 6.8706e-03 -5.7110e-05 -3.9584e-05 3.0096e-03 -4.0334e-05 5.2397e-05 
6.7928e-03 4.1131e-05 6.6937e-05 3.2308e-03 5.6717e-05 5.8343e-05 6.8499e-03 7.2517e-05 1.3428e-05 3.2380e-03 7.0302e-05 2.0488e-05 6.8625e-03 5.2988e-05 1.8193e-05 3.2455e-03 4.7001e-05 -2.8818e-05 6.8522e-03 3.1100e-05 -7.3343e-05 3.1939e-03 1.0749e-06 -4.6225e-05 6.7538e-03 -3.2974e-05 -6.5358e-06 3.1276e-03 -1.6274e-05 1.9974e-05 
6.2236e-03 -4.3188e-05 4.5952e-05 2.7720e-03 -3.0436e-05 2.7485e-05 6.2664e-03 -1.8756e-05 6.9693e-06 2.7679e-03 -1.0341e-06 1.5402e-05 6.2839e-03 4.1643e-06 1.6488e-05 2.8107e-03 -3.0356e-05 -1.6909e-05 6.3299e-03 -3.3933e-06 -4.4802e-05 2.7798e-03 -4.2211e-05 -1.8325e-05 6.2114e-03 -8.3309e-05 1.7421e-06 2.7267e-03 -5.2529e-05 2.0657e-05 
5.0935e-03 1.9529e-05 -3.1343e-05 1.6235e-03 3.1257e-05 1.5561e-05 4.9184e-03 4.4746e-05 -1.1690e-04 1.4815e-03 2.3889e-05 -1.5534e-04 4.9748e-03 2.6019e-05 1.9469e-04 1.5140e-03 4.5786e-05 1.7568e-04 5.2289e-03 4.1168e-05 -3.1099e-06 1.6595e-03 2.3426e-05 -2.3352e-05 5.1236e-03 2.9295e-05 -7.9101e-06 1.6177e-03 2.5152e-05 2.3691e-05 
3.2363e-03 -4.2822e-05 -7.5664e-06 -2.9313e-04 -5.3743e-05 1.2798e-05 3.2406e-03 -1.9478e-05 1.9662e-05 -3.2259e-04 -2.2063e-05 -1.9461e-05 3.2610e-03 -3.0518e-05 1.6263e-05 -2.9056e-04 -2.9592e-05 2.4069e-05 3.3051e-03 -1.7852e-05 -2.8463e-06 -2.8187e-04 -3.7810e-05 -1.0799e-05 3.2505e-03 -1.6492e-05 3.0463e-07 -3.0578e-04 -3.5369e-05 4.4733e-06 
0.0000e+00 0.0000e+00 0.0000e+00 0.0000e+00 0.0000e+00 0.0000e+00 0.0000e+00 0.0000e+00 0.0000e+00 0.0000e+00 0.0000e+00 0.0000e+00 0.0000e+00 0.0000e+00 0.0000e+00 0.0000e+00 0.0000e+00 0.0000e+00 0.0000e+00 0.0000e+00 0.0000e+00 0.0000e+00 0.0000e+00 0.0000e+00 0.0000e+00 0.0000e+00 0.0000e+00 0.0000e+00 0.0000e+00 0.0000e+00 
0.0000e+00 0.0000e+00 0.0000e+00 0.0000e+00 0.0000e+00 0.0000e+00 0.0000e+00 0.0000e+00 0.0000e+00 0.0000e+00 0.0000e+00 0.0000e+00 0.0000e+00 0.0000e+00 0.0000e+00 0.0000e+00 0.0000e+00 0.0000e+00 0.0000e+00 0.0000e+00 0.0000e+00 0.0000e+00 0.0000e+00 0.0000e+00 0.0000e+00 0.0000e+00 0.0000e+00 0.0000e+00 0.0000e+00 0.0000e+00 
3.4835e-03 1.0594e-05 6.1587e-06 -6.2655e-04 7.4324e-05 1.8156e-05 3.5157e-03 6.2986e-05 2.4173e-05 -6.7228e-04 2.3951e-05 2.6795e-05 3.5119e-03 8.1529e-06 1.7492e-05 -5.3383e-04 1.7189e-05 1.0294e-05 3.4541e-03 3.7102e-06 -6.3929e-06 -5.9889e-04 3.3072e-05 -1.9593e-05 3.4981e-03 5.4244e-05 -1.3093e-05 -5.9427e-04 4.3000e-05 -8.2279e-06 
5.3209e-03 2.4192e-06 1.1195e-05 1.2794e-03 5.6246e-06 2.9216e-05 5.3403e-03 -1.6397e-05 3.9593e-05 1.0629e-03 -2.5545e-04 4.3840e-05 5.3680e-03 3.1977e-06 3.1854e-05 1.0406e-03 1.3195e-04 1.1418e-05 5.3575e-03 -1.6712e-04 -1.6345e-05 1.3583e-03 -6.9821e-05 -3.3916e-05 5.3514e-03 2.1348e-05 -2.8201e-05 1.2248e-03 4.7027e-05 -1.7362e-05 
6.3531e-03 8.3668e-05 1.5717e-05 2.4570e-03 9.0456e-05 3.1294e-05 6.3985e-03 8.2453e-05 3.8281e-05 1.9809e-03 4.5845e-05 4.0571e-05 6.4235e-03 -7.4626e-06 3.5099e-05 1.9459e-03 -7.8554e-05 6.9762e-06 6.4195e-03 -2.3041e-05 -1.8031e-05 2.4062e-03 4.3882e-06 -3.7042e-05 6.3633e-03 1.9566e-05 -3.6400e-05 2.3438e-03 1.0601e-04 -1.3574e-05 
6.7566e-03 7.5509e-07 1.6286e-05 3.0435e-03 2.9238e-05 2.7709e-05 6.8153e-03 1.8646e-05 3.3131e-05 2.8058e-03 2.6949e-04 3.2380e-05 6.8230e-03 -7.8346e-06 2.7311e-05 2.7534e-03 -3.0825e-04 6.9834e-06 6.7785e-03 -7.6404e-05 -1.8031e-05 2.6840e-03 -5.4414e-05 -3.7113e-05 6.6907e-03 -4.0490e-05 -2.7660e-05 2.8719e-03 -4.4244e-05 -4.8488e-06 
6.6548e-03 3.9094e-05 1.5798e-05 3.0856e-03 5.1162e-05 2.3499e-05 6.7170e-03 6.3355e-05 2.9310e-05 3.1432e-03 5.2688e-05 2.5221e-05 6.7256e-03 3.9301e-05 1.5643e-05 3.0661e-03 6.2810e-05 1.7867e-06 6.6821e-03 1.7721e-05 -1.4583e-05 3.0017e-03 1.1357e-05 -2.4982e-05 6.5637e-03 -8.4698e-06 -1.4021e-05 2.9432e-03 -3.4947e-05 1.5413e-06 
6.0618e-03 -9.4266e-05 1.4794e-05 2.6355e-03 -5.5590e-05 2.0331e-05 5.9545e-03 -1.6095e-04 2.0765e-05 2.5139e-03 -1.5965e-04 1.5319e-05 5.9868e-03 1.8402e-04 1.0153e-05 2.4900e-03 1.8145e-04 8.8473e-07 6.1995e-03 3.7836e-05 -8.4011e-06 2.6444e-03 -3.7743e-05 -1.3360e-05 6.0785e-03 -1.0306e-04 -4.1372e-06 2.5601e-03 -8.1988e-05 6.5045e-06 
4.9665e-03 3.4755e-05 1.6842e-05 1.6027e-03 3.3203e-05 1.1926e-05 4.6242e-03 5.4547e-05 9.9224e-06 1.2099e-03 8.8849e-06 7.8637e-06 4.7345e-03 1.8445e-05 7.7569e-06 1.2759e-03 5.4447e-05 1.8661e-06 2.9596e-03 3.2410e-05 -3.9897e-06 1.5646e-03 1.8668e-05 -5.6059e-06 5.0600e-03 3.4455e-05 -1.2598e-06 1.5065e-03 5.0765e-06 6.7998e-06 
3.1888e-03 3.0841e-05 6.4447e-06 -3.1068e-04 -5.4971e-05 6.1394e-06 2.9873e-03 8.2118e-05 3.0382e-06 -5.1378e-04 1.7367e-04 3.3307e-06 3.0886e-03 -1.8770e-04 1.5268e-06 -4.9376e-04 -2.1433e-04 -1.8443e-06 3.2778e-03 -1.0761e-05 -4.9705e-07 -3.1675e-04 -8.0156e-06 -1.0393e-07 3.2354e-03 -7.6728e-06 -1.0897e-06 -3.4417e-04 -7.1429e-05 1.5603e-06 
0.0000e+00 0.0000e+00 0.0000e+00 0.0000e+00 0.0000e+00 0.0000e+00 0.0000e+00 0.0000e+00 0.0000e+00 0.0000e+00 0.0000e+00 0.0000e+00 0.0000e+00 0.0000e+00 0.0000e+00 0.0000e+00 0.0000e+00 0.0000e+00 0.0000e+00 0.0000e+00 0.0000e+00 0.0000e+00 0.0000e+00 0.0000e+00 0.0000e+00 0.0000e+00 0.0000e+00 0.0000e+00 0.0000e+00 0.0000e+00 
0.0000e+00 0.0000e+00 0.0000e+00 0.0000e+00 0.0000e+00 0.0000e+00 0.0000e+00 0.0000e+00 0.0000e+00 0.0000e+00 0.0000e+00 0.0000e+00 0.0000e+00 0.0000e+00 0.0000e+00 0.0000e+00 0.0000e+00 0.0000e+00 0.0000e+00 0.0000e+00 0.0000e+00 0.0000e+00 0.0000e+00 0.0000e+00 0.0000e+00 0.0000e+00 0.0000e+00 0.0000e+00 0.0000e+00 0.0000e+00 
3.3175e-03 3.6091e-05 -3.3114e-06 -6.8500e-04 5.5384e-05 3.2689e-06 3.3482e-03 4.9385e-05 -1.3737e-05 -6.6744e-04 4.3151e-05 2.7023e-05 3.3410e-03 8.5611e-06 6.7458e-05 -6.5967e-04 1.9662e-05 -7.0311e-06 3.3136e-03 -7.5109e-06 -3.2780e-05 -6.4430e-04 3.8535e-05 -1.1730e-05 3.3334e-03 2.3964e-05 2.7652e-06 -6.5323e-04 4.3295e-05 -2.8034e-06 
4.9755e-03 1.8184e-06 -1.1107e-06 1.0198e-03 6.4159e-06 -2.0853e-06 4.9818e-03 -7.7827e-06 1.7586e-05 1.0681e-03 -2.2442e-05 3.0069e-05 5.0356e-03 -6.1647e-05 2.1259e-05 1.1079e-03 -7.4378e-05 1.9926e-05 5.0400e-03 -9.5323e-05 4.1876e-05 1.0851e-03 -4.9717e-05 -2.6553e-06 4.9944e-03 -3.7363e-06 -4.6773e-05 1.0437e-03 -9.1691e-06 -1.5530e-05 
5.8880e-03 7.0233e-05 -1.0181e-05 2.0479e-03 7.6007e-05 3.9270e-06 5.9063e-03 6.8467e-05 2.0502e-05 1.8219e-03 3.3169e-05 2.8868e-04 5.9401e-03 -4.5495e-07 5.3383e-05 1.8364e-03 -3.5379e-05 -1.9516e-04 5.9480e-03 -4.1932e-05 4.0788e-05 2.0511e-03 1.1416e-05 1.3591e-06 5.8970e-03 5.7741e-05 -4.6558e-05 2.0103e-03 8.7289e-05 -5.1170e-05 
6.2378e-03 -1.2807e-05 -1.9824e-05 2.5480e-03 6.0768e-06 -1.3611e-05 6.2667e-03 8.5689e-06 -1.7414e-06 2.5697e-03 -1.8250e-05 1.0128e-05 6.2919e-03 -3.3183e-05 5.3648e-05 2.5125e-03 -5.8422e-05 8.5302e-05 6.2661e-03 -6.1760e-05 3.0770e-05 2.4731e-03 -5.1849e-05 -1.0007e-06 6.2176e-03 -2.6344e-05 -2.0675e-05 2.4283e-03 -1.8852e-05 -7.0158e-05 
6.1478e-03 3.4908e-05 -3.6131e-05 2.5932e-03 5.1858e-05 -3.7325e-05 6.1976e-03 5.8594e-05 -3.7201e-06 2.6048e-03 4.4971e-05 2.3712e-06 6.2090e-03 2.9891e-05 2.8472e-05 2.5973e-03 4.2462e-05 5.8992e-05 6.1857e-03 4.1895e-05 6.1339e-05 2.5534e-03 1.6118e-05 1.9392e-07 6.1184e-03 -1.0058e-05 -3.3573e-05 2.5014e-03 -4.6420e-06 -2.4342e-05 
5.6756e-03 -4.5729e-05 -1.9034e-05 2.1902e-03 -3.7574e-05 -1.7262e-05 5.7074e-03 -2.6680e-05 -1.6671e-05 2.1991e-03 -1.4113e-05 -9.3867e-06 5.7418e-03 -1.2194e-05 2.3067e-05 2.2301e-03 -2.5537e-05 3.7388e-05 5.7592e-03 2.5299e-06 4.5313e-05 2.1973e-03 -3.1026e-05 -2.3819e-06 5.6773e-03 -7.0474e-05 -1.9707e-05 2.1630e-03 -4.5403e-05 -1.3517e-05 
4.7141e-03 1.1865e-05 4.5280e-05 1.2178e-03 2.1498e-05 -1.2468e-05 4.5361e-03 3.6095e-05 1.1627e-04 1.0770e-03 2.3441e-05 1.6178e-04 4.6043e-03 2.5410e-05 -1.6006e-04 1.1109e-03 3.9662e-05 -1.3611e-04 4.8371e-03 3.8411e-05 1.5937e-05 1.2534e-03 2.8010e-05 6.4663e-06 4.7616e-03 2.6208e-05 7.2313e-07 1.2218e-03 1.7849e-05 -1.1078e-05 
3.1052e-03 -4.2193e-05 1.1934e-05 -4.4950e-04 -5.3778e-05 -1.1838e-05 3.1068e-03 -2.1100e-05 -1.9949e-05 -4.7098e-04 -1.5462e-05 1.8790e-05 3.1270e-03 -2.4772e-05 6.3517e-06 -4.4511e-04 -3.2900e-05 -3.9006e-06 3.1736e-03 -1.3508e-05 1.2141e-05 -4.3823e-04 -3.0313e-05 6.6816e-06 3.1218e-03 -2.6589e-05 -8.2966e-07 -4.5425e-04 -4.0247e-05 5.0270e-06 
0.0000e+00 0.0000e+00 0.0000e+00 0.0000e+00 0.0000e+00 0.0000e+00 0.0000e+00 0.0000e+00 0.0000e+00 0.0000e+00 0.0000e+00 0.0000e+00 0.0000e+00 0.0000e+00 0.0000e+00 0.0000e+00 0.0000e+00 0.0000e+00 0.0000e+00 0.0000e+00 0.0000e+00 0.0000e+00 0.0000e+00 0.0000e+00 0.0000e+00 0.0000e+00 0.0000e+00 0.0000e+00 0.0000e+00 0.0000e+00 
0.0000e+00 0.0000e+00 0.0000e+00 0.0000e+00 0.0000e+00 0.0000e+00 0.0000e+00 0.0000e+00 0.0000e+00 0.0000e+00 0.0000e+00 0.0000e+00 0.0000e+00 0.0000e+00 0.0000e+00 0.0000e+00 0.0000e+00 0.0000e+00 0.0000e+00 0.0000e+00 0.0000e+00 0.0000e+00 0.0000e+00 0.0000e+00 0.0000e+00 0.0000e+00 0.0000e+00 0.0000e+00 0.0000e+00 0.0000e+00 
3.0063e-03 3.8293e-05 -8.3945e-06 -8.6871e-04 4.1765e-05 1.3855e-05 3.0257e-03 3.3408e-05 1.5093e-05 -8.3202e-04 4.2741e-05 7.3737e-06 3.0415e-03 1.1476e-05 -6.6666e-07 -8.2387e-04 2.9178e-05 5.6330e-06 3.0220e-03 7.6566e-06 1.2176e-05 -8.3999e-04 2.6799e-05 2.4897e-06 3.0186e-03 2.1297e-05 6.9897e-06 -8.5193e-04 4.2244e-05 -4.9649e-06 
4.2551e-03 -1.0329e-05 -1.9302e-05 4.0747e-04 -2.0322e-06 -1.4255e-05 4.2728e-03 -1.0850e-05 1.3210e-05 4.4974e-04 -3.3000e-05 9.8933e-06 4.3123e-03 -5.0506e-05 1.2779e-05 4.8222e-04 -6.1224e-05 2.0769e-05 4.3021e-03 -6.5730e-05 1.4580e-05 4.5438e-04 -3.6851e-05 8.9479e-06 4.2724e-03 -2.8202e-05 1.0816e-05 4.2410e-04 -1.7952e-05 -8.0141e-06 
4.9314e-03 5.7837e-05 -2.6929e-05 1.1361e-03 6.4727e-05 -1.9008e-05 4.9298e-03 4.8951e-05 -4.7175e-07 1.1688e-03 2.9788e-05 1.2110e-05 4.9722e-03 1.1280e-05 2.5117e-05 1.1998e-03 -5.3889e-06 2.3808e-05 4.9830e-03 -2.8791e-05 4.2800e-05 1.1965e-03 1.8607e-05 3.1681e-06 4.9425e-03 6.3285e-05 -2.3915e-05 1.1483e-03 5.4503e-05 -1.5222e-05 
5.1776e-03 -8.8112e-06 -2.2893e-05 1.4765e-03 -6.1446e-06 -2.7133e-05 5.1849e-03 -7.4475e-06 -1.6759e-05 1.4966e-03 -2.8607e-05 8.0533e-06 5.2106e-03 -5.0283e-05 2.9977e-05 1.4880e-03 -5.7775e-05 7.5679e-05 5.2336e-03 -5.1445e-05 7.7058e-05 1.5426e-03 -4.5913e-05 5.6746e-06 5.1993e-03 -3.0102e-05 -5.8346e-05 1.4450e-03 -6.8027e-06 -6.8162e-05 
5.1223e-03 3.5003e-05 -1.3328e-05 1.5190e-03 4.9219e-05 -2.7691e-05 5.1334e-03 5.1926e-05 -2.9058e-05 1.5123e-03 3.7125e-05 -2.9838e-06 5.1589e-03 2.3412e-05 3.0149e-05 1.5639e-03 2.2725e-05 2.3812e-05 5.1761e-03 4.3313e-05 4.9430e-05 1.5560e-03 1.9903e-05 9.6425e-06 5.1476e-03 9.4561e-06 -2.9235e-05 1.5141e-03 2.9781e-05 -6.9668e-06 
4.8033e-03 -2.7932e-05 -5.9257e-06 1.2319e-03 -3.1679e-05 -2.4945e-05 4.7983e-03 -3.3072e-05 -2.4191e-05 1.2294e-03 -1.9706e-05 -4.5885e-06 4.8306e-03 -1.8590e-05 1.4119e-05 1.2717e-03 -2.7622e-05 2.1059e-05 4.8558e-03 -2.8387e-05 1.5858e-05 1.2776e-03 -3.2055e-05 3.5754e-06 4.8166e-03 -3.8304e-05 2.8498e-06 1.2233e-03 -4.7063e-05 -1.7171e-06 
4.1142e-03 2.7434e-05 -3.0863e-06 5.3151e-04 1.7631e-05 -1.7022e-05 4.1112e-03 2.6956e-05 -1.0776e-05 5.5017e-04 3.6002e-05 -7.0247e-06 4.1241e-03 3.7737e-05 3.2215e-06 5.8077e-04 3.3330e-05 1.6155e-05 4.1813e-03 4.3789e-05 1.2528e-05 5.8391e-04 3.3326e-05 -4.2404e-06 4.1239e-03 2.1181e-05 5.7872e-06 5.5374e-04 2.5193e-05 6.5158e-06 
2.8674e-03 -4.9519e-05 -1.4244e-06 -7.1985e-04 -3.9446e-05 -1.7319e-06 2.8750e-03 -9.7898e-06 -4.1244e-06 -7.2122e-04 -5.5021e-05 -1.6420e-05 2.8733e-03 -2.6990e-05 -9.1904e-08 -6.9537e-04 -2.2560e-05 1.0699e-05 2.9147e-03 -2.1617e-05 3.9060e-06 -6.9866e-04 -4.4463e-05 -5.8114e-06 2.8831e-03 -1.5396e-05 3.7469e-06 -7.1156e-04 -2.5376e-05 1.3642e-05 
0.0000e+00 0.0000e+00 0.0000e+00 0.0000e+00 0.0000e+00 0.0000e+00 0.0000e+00 0.0000e+00 0.0000e+00 0.0000e+00 0.0000e+00 0.0000e+00 0.0000e+00 0.0000e+00 0.0000e+00 0.0000e+00 0.0000e+00 0.0000e+00 0.0000e+00 0.0000e+00 0.0000e+00 0.0000e+00 0.0000e+00 0.0000e+00 0.0000e+00 0.0000e+00 0.0000e+00 0.0000e+00 0.0000e+00 0.0000e+00 
0.0000e+00 0.0000e+00 0.0000e+00 0.0000e+00 0.0000e+00 0.0000e+00 0.0000e+00 0.0000e+00 0.0000e+00 0.0000e+00 0.0000e+00 0.0000e+00 0.0000e+00 0.0000e+00 0.0000e+00 0.0000e+00 0.0000e+00 0.0000e+00 0.0000e+00 0.0000e+00 0.0000e+00 0.0000e+00 0.0000e+00 0.0000e+00 0.0000e+00 0.0000e+00 0.0000e+00 0.0000e+00 0.0000e+00 0.0000e+00 
2.4604e-03 3.5323e-05 -3.3271e-06 -1.3466e-03 3.9037e-05 -1.1699e-05 2.4660e-03 3.3609e-05 -7.0473e-06 -1.3300e-03 3.2472e-05 -1.4712e-06 2.4747e-03 2.0042e-05 1.2079e-05 -1.3209e-03 2.4641e-05 -6.6789e-06 2.4612e-03 2.1122e-05 7.7664e-06 -1.3338e-03 2.7446e-05 1.2783e-05 2.4574e-03 2.8690e-05 7.2016e-07 -1.3460e-03 3.6860e-05 -4.6375e-06 
2.9807e-03 -2.0139e-05 -1.8458e-06 -8.1210e-04 -1.7193e-05 -2.1118e-05 2.9907e-03 -2.0948e-05 -1.3626e-06 -7.9320e-04 -3.1841e-05 -2.8361e-06 3.0088e-03 -3.9122e-05 2.0537e-05 -7.7925e-04 -4.7161e-05 -1.6016e-06 2.9996e-03 -4.8654e-05 1.8483e-05 -7.9091e-04 -3.9677e-05 3.7134e-06 2.9879e-03 -2.8879e-05 4.9051e-06 -8.1332e-04 -2.2718e-05 -5.3241e-06 
3.2342e-03 4.7564e-05 1.7553e-06 -5.3080e-04 4.7543e-05 -2.8056e-05 3.2352e-03 3.8441e-05 -6.2204e-06 -5.1888e-04 3.0299e-05 -4.0018e-06 3.2554e-03 1.9032e-05 1.1904e-05 -5.0146e-04 1.0410e-05 5.4317e-06 3.2597e-03 1.2121e-05 2.9586e-05 -4.9899e-04 2.4575e-05 1.5428e-06 3.2485e-03 3.5911e-05 7.9278e-06 -5.2899e-04 4.2936e-05 6.6663e-07 
3.3158e-03 -1.1396e-05 -6.6327e-06 -3.9544e-04 -1.5874e-05 -2.8487e-05 3.3126e-03 -2.3641e-05 -6.2494e-06 -3.8557e-04 -3.0721e-05 -9.9596e-06 3.3285e-03 -3.9497e-05 1.3488e-05 -3.6671e-04 -4.8084e-05 8.9726e-06 3.3510e-03 -4.3725e-05 2.1717e-05 -3.5352e-04 -3.4495e-05 3.4992e-06 3.3359e-03 -3.0369e-05 1.9428e-05 -3.8300e-04 -1.8759e-05 -7.3434e-06 
3.2835e-03 3.6209e-05 -7.6614e-06 -3.7338e-04 3.8885e-05 -3.1434e-05 3.2743e-03 3.9966e-05 -1.1623e-05 -3.6433e-04 3.2310e-05 -8.3776e-06 3.2902e-03 2.5545e-05 1.6509e-05 -3.4083e-04 2.5621e-05 3.2736e-06 3.3181e-03 2.5623e-05 2.1777e-05 -3.2742e-04 2.7745e-05 7.1672e-06 3.3037e-03 3.2697e-05 1.5589e-05 -3.4961e-04 3.5716e-05 -1.0021e-05 
3.1514e-03 -3.9670e-05 -5.6883e-07 -4.6404e-04 -3.4642e-05 -2.8984e-05 3.1454e-03 -2.3724e-05 -9.4133e-06 -4.6281e-04 -2.5175e-05 -5.7192e-06 3.1575e-03 -2.8944e-05 1.4874e-05 -4.3406e-04 -2.6870e-05 5.4288e-07 3.1863e-03 -2.7145e-05 2.0117e-05 -4.2103e-04 -3.2977e-05 1.6898e-06 3.1735e-03 -3.2640e-05 6.8774e-06 -4.4937e-04 -3.4957e-05 -7.3451e-07 