<?xml version="1.0"?>
<!-- openLBMflow v1.0.1, www.lbmflow.com -->
<VTKFile type="ImageData" version="0.1" byte_order="LittleEndian">
  <ImageData WholeExtent="0 9 0 9 0 9" Origin="0 0 0" Spacing="1 1 1">
  <Piece Extent="0 9 0 9 0 9">
    <PointData Scalars="scalars">
      <DataArray type="Float32" Name="Velocity" NumberOfComponents="3" format="ascii">
0.0000e+00 0.0000e+00 0.0000e+00 0.0000e+00 0.0000e+00 0.0000e+00 0.0000e+00 0.0000e+00 0.0000e+00 0.0000e+00 0.0000e+00 0.0000e+00 0.0000e+00 0.0000e+00 0.0000e+00 0.0000e+00 0.0000e+00 0.0000e+00 0.0000e+00 0.0000e+00 0.0000e+00 0.0000e+00 0.0000e+00 0.0000e+00 0.0000e+00 0.0000e+00 0.0000e+00 0.0000e+00 0.0000e+00 0.0000e+00 
0.0000e+00 0.0000e+00 0.0000e+00 0.0000e+00 0.0000e+00 0.0000e+00 0.0000e+00 0.0000e+00 0.0000e+00 0.0000e+00 0.0000e+00 0.0000e+00 0.0000e+00 0.0000e+00 0.0000e+00 0.0000e+00 0.0000e+00 0.0000e+00 0.0000e+00 0.0000e+00 0.0000e+00 0.0000e+00 0.0000e+00 0.0000e+00 0.0000e+00 0.0000e+00 0.0000e+00 0.0000e+00 0.0000e+00 0.0000e+00 
0.0000e+00 0.0000e+00 0.0000e+00 0.0000e+00 0.0000e+00 0.0000e+00 0.0000e+00 0.0000e+00 0.0000e+00 0.0000e+00 0.0000e+00 0.0000e+00 0.0000e+00 0.0000e+00 0.0000e+00 0.0000e+00 0.0000e+00 0.0000e+00 0.0000e+00 0.0000e+00 0.0000e+00 0.0000e+00 0.0000e+00 0.0000e+00 0.0000e+00 0.0000e+00 0.0000e+00 0.0000e+00 0.0000e+00 0.0000e+00 
0.0000e+00 0.0000e+00 0.0000e+00 0.0000e+00 0.0000e+00 0.0000e+00 0.0000e+00 0.0000e+00 0.0000e+00 0.0000e+00 0.0000e+00 0.0000e+00 0.0000e+00 0.0000e+00 0.0000e+00 0.0000e+00 0.0000e+00 0.0000e+00 0.0000e+00 0.0000e+00 0.0000e+00 0.0000e+00 0.0000e+00 0.0000e+00 0.0000e+00 0.0000e+00 0.0000e+00 0.0000e+00 0.0000e+00 0.0000e+00 
0.0000e+00 0.0000e+00 0.0000e+00 0.0000e+00 0.0000e+00 0.0000e+00 0.0000e+00 0.0000e+00 0.0000e+00 0.0000e+00 0.0000e+00 0.0000e+00 0.0000e+00 0.0000e+00 0.0000e+00 0.0000e+00 0.0000e+00 0.0000e+00 0.0000e+00 0.0000e+00 0.0000e+00 0.0000e+00 0.0000e+00 0.0000e+00 0.0000e+00 0.0000e+00 0.0000e+00 0.0000e+00 0.0000e+00 0.0000e+00 
0.0000e+00 0.0000e+00 0.0000e+00 0.0000e+00 0.0000e+00 0.0000e+00 0.0000e+00 0.0000e+00 0.0000e+00 0.0000e+00 0.0000e+00 0.0000e+00 0.0000e+00 0.0000e+00 0.0000e+00 0.0000e+00 0.0000e+00 0.0000e+00 0.0000e+00 0.0000e+00 0.0000e+00 0.0000e+00 0.0000e+00 0.0000e+00 0.0000e+00 0.0000e+00 0.0000e+00 0.0000e+00 0.0000e+00 0.0000e+00 
0.0000e+00 0.0000e+00 0.0000e+00 0.0000e+00 0.0000e+00 0.0000e+00 0.0000e+00 0.0000e+00 0.0000e+00 0.0000e+00 0.0000e+00 0.0000e+00 0.0000e+00 0.0000e+00 0.0000e+00 0.0000e+00 0.0000e+00 0.0000e+00 0.0000e+00 0.0000e+00 0.0000e+00 0.0000e+00 0.0000e+00 0.0000e+00 0.0000e+00 0.0000e+00 0.0000e+00 0.0000e+00 0.0000e+00 0.0000e+00 
0.0000e+00 0.0000e+00 0.0000e+00 0.0000e+00 0.0000e+00 0.0000e+00 0.0000e+00 0.0000e+00 0.0000e+00 0.0000e+00 0.0000e+00 0.0000e+00 0.0000e+00 0.0000e+00 0.0000e+00 0.0000e+00 0.0000e+00 0.0000e+00 0.0000e+00 0.0000e+00 0.0000e+00 0.0000e+00 0.0000e+00 0.0000e+00 0.0000e+00 0.0000e+00 0.0000e+00 0.0000e+00 0.0000e+00 0.0000e+00 
0.0000e+00 0.0000e+00 0.0000e+00 0.0000e+00 0.0000e+00 0.0000e+00 0.0000e+00 0.0000e+00 0.0000e+00 0.0000e+00 0.0000e+00 0.0000e+00 0.0000e+00 0.0000e+00 0.0000e+00 0.0000e+00 0.0000e+00 0.0000e+00 0.0000e+00 0.0000e+00 0.0000e+00 0.0000e+00 0.0000e+00 0.0000e+00 0.0000e+00 0.0000e+00 0.0000e+00 0.0000e+00 0.0000e+00 0.0000e+00 
0.0000e+00 0.0000e+00 0.0000e+00 0.0000e+00 0.0000e+00 0.0000e+00 0.0000e+00 0.0000e+00 0.0000e+00 0.0000e+00 0.0000e+00 0.0000e+00 0.0000e+00 0.0000e+00 0.0000e+00 0.0000e+00 0.0000e+00 0.0000e+00 0.0000e+00 0.0000e+00 0.0000e+00 0.0000e+00 0.0000e+00 0.0000e+00 0.0000e+00 0.0000e+00 0.0000e+00 0.0000e+00 0.0000e+00 0.0000e+00 
0.0000e+00 0.0000e+00 0.0000e+00 0.0000e+00 0.0000e+00 0.0000e+00 0.0000e+00 0.0000e+00 0.0000e+00 0.0000e+00 0.0000e+00 0.0000e+00 0.0000e+00 0.0000e+00 0.0000e+00 0.0000e+00 0.0000e+00 0.0000e+00 0.0000e+00 0.0000e+00 0.0000e+00 0.0000e+00 0.0000e+00 0.0000e+00 0.0000e+00 0.0000e+00 0.0000e+00 0.0000e+00 0.0000e+00 0.0000e+00 
2.5004e-03 4.6537e-05 -3.1231e-05 -1.1020e-03 2.6885e-05 -1.8339e-05 2.2519e-03 2.1316e-05 8.2438e-06 -1.2794e-03 7.8144e-05 -2.5879e-05 2.6113e-03 -3.9525e-05 -5.7858e-06 -1.3987e-03 1.4412e-05 1.1038e-05 2.5733e-03 1.1271e-04 -2.5980e-05 -1.3577e-03 1.5516e-05 2.2566e-05 2.4936e-03 -6.0329e-05 1.0913e-05 -1.2625e-03 4.7479e-05 -8.1593e-06 
3.2753e-03 1.7991e-05 -2.7324e-05 -8.4167e-04 -1.2255e-04 -5.5958e-05 3.3171e-03 -5.9428e-05 2.1083e-05 -7.8341e-04 1.4489e-04 1.1965e-04 3.2475e-03 1.1247e-05 -2.0404e-05 -7.6553e-04 4.6265e-06 2.1276e-05 3.1807e-03 -1.0737e-04 1.2872e-05 -7.9502e-04 -1.3038e-04 -5.0346e-05 3.2466e-03 2.0707e-05 -2.3654e-05 -7.6105e-04 -1.7766e-05 4.7774e-06 
3.9340e-03 -2.1075e-04 -1.9235e-05 -7.3124e-04 6.8836e-05 -7.8909e-05 3.8064e-03 4.4340e-05 -1.1058e-06 -6.3279e-04 5.1911e-05 7.2725e-05 3.5658e-03 -6.5038e-05 -1.0514e-04 -4.6780e-04 1.9727e-05 5.2333e-05 3.3871e-03 6.9693e-05 4.2618e-05 -3.9005e-04 -1.0201e-05 -2.6681e-05 3.8111e-03 2.9421e-04 3.7501e-05 -6.0444e-04 1.3584e-05 1.5989e-05 
4.2197e-03 -3.5409e-05 -1.3441e-05 -5.0082e-04 1.7607e-05 -5.2475e-05 3.7098e-03 -5.5057e-06 2.9984e-06 -3.5885e-04 3.6507e-05 5.3866e-05 3.5405e-03 1.1115e-04 -1.5939e-04 -1.6176e-05 -3.5215e-05 1.1257e-05 3.4653e-03 -7.2535e-06 1.1221e-04 -2.2310e-04 -7.6885e-05 4.4153e-06 4.1536e-03 -1.4013e-04 4.4774e-06 -8.5049e-04 -1.3518e-05 1.3369e-05 
3.9107e-03 2.1572e-04 1.1300e-05 -3.5154e-04 3.0280e-05 1.3636e-05 3.5618e-03 -3.3598e-05 -3.6271e-05 -1.3376e-04 -2.3528e-05 -8.2345e-06 3.4220e-03 4.0635e-05 -1.4262e-04 -1.2372e-04 -1.3806e-05 -1.7595e-05 3.5017e-03 2.6485e-05 4.0525e-05 -2.4939e-04 6.5342e-05 2.5898e-05 6.1731e-03 1.9046e-04 1.6348e-05 -3.3841e-04 3.9574e-05 1.1659e-05 
3.4775e-03 1.4434e-05 3.6399e-05 -3.8955e-04 -5.2136e-05 5.3497e-05 3.2816e-03 -1.1828e-05 -5.7047e-05 -1.7814e-04 -6.7042e-05 -3.1431e-05 3.2112e-03 -7.8268e-05 -1.3777e-04 -4.3072e-05 -2.0640e-05 -4.3002e-05 3.3087e-03 -1.6945e-05 1.2490e-04 -2.5114e-04 4.8154e-05 4.3481e-05 3.4738e-03 -3.9197e-05 -4.8614e-06 -3.7940e-04 -4.5610e-05 1.8937e-05 
3.0109e-03 1.0680e-05 6.1242e-05 -5.5205e-04 -1.1609e-04 6.2891e-06 3.0287e-03 6.2684e-05 -2.7984e-05 -5.6150e-04 4.3670e-05 2.0352e-05 2.9333e-03 9.5253e-05 -4.5182e-05 -5.1846e-04 1.2976e-04 -3.7294e-05 3.0183e-03 9.7205e-06 3.9478e-05 -4.5159e-04 -1.1251e-05 1.9913e-05 4.8144e-03 -1.8427e-04 1.0628e-05 -3.7580e-04 7.3812e-05 2.6843e-05 
2.1873e-03 -5.6626e-05 1.6254e-05 -1.1468e-03 5.9734e-05 -1.8659e-05 2.5345e-03 -4.1642e-05 -9.2182e-06 -1.2715e-03 -1.5029e-04 2.0335e-05 2.4345e-03 -1.2791e-04 -1.7602e-05 -1.1155e-03 9.4557e-07 -1.7256e-05 2.2389e-03 1.3764e-05 -8.7175e-06 -1.2409e-03 -1.7020e-05 3.6269e-06 2.5326e-03 1.3565e-04 -1.2600e-05 -1.0500e-03 -4.4965e-05 4.9087e-06 
0.0000e+00 0.0000e+00 0.0000e+00 0.0000e+00 0.0000e+00 0.0000e+00 0.0000e+00 0.0000e+00 0.0000e+00 0.0000e+00 0.0000e+00 0.0000e+00 0.0000e+00 0.0000e+00 0.0000e+00 0.0000e+00 0.0000e+00 0.0000e+00 0.0000e+00 0.0000e+00 0.0000e+00 0.0000e+00 0.0000e+00 0.0000e+00 0.0000e+00 0.0000e+00 0.0000e+00 0.0000e+00 0.0000e+00 0.0000e+00 
0.0000e+00 0.0000e+00 0.0000e+00 0.0000e+00 0.0000e+00 0.0000e+00 0.0000e+00 0.0000e+00 0.0000e+00 0.0000e+00 0.0000e+00 0.0000e+00 0.0000e+00 0.0000e+00 0.0000e+00 0.0000e+00 0.0000e+00 0.0000e+00 0.0000e+00 0.0000e+00 0.0000e+00 0.0000e+00 0.0000e+00 0.0000e+00 0.0000e+00 0.0000e+00 0.0000e+00 0.0000e+00 0.0000e+00 0.0000e+00 
3.0328e-03 8.5482e-06 2.3944e-05 -6.5512e-04 4.4848e-05 -7.1662e-05 3.0219e-03 1.1960e-05 -4.0181e-05 -6.7207e-04 4.2922e-05 9.8227e-05 3.0388e-03 3.6805e-06 2.4192e-05 -7.0688e-04 1.9678e-05 -4.5699e-07 3.0328e-03 3.3113e-05 -1.9322e-05 -6.9686e-04 3.0050e-05 -4.1550e-05 3.0335e-03 3.0654e-05 1.7083e-05 -6.8088e-04 3.6904e-05 1.4339e-05 
4.5291e-03 -9.1735e-06 -1.3863e-05 5.6006e-04 4.6244e-06 2.2222e-06 4.4766e-03 -1.1581e-05 -7.3248e-06 6.1744e-04 -1.5253e-05 7.2568e-06 4.4325e-03 -1.8037e-06 2.4837e-05 7.0676e-04 -6.2373e-06 -8.6521e-06 4.4310e-03 -5.9391e-05 -3.0857e-05 6.7231e-04 -5.7545e-05 -9.4914e-06 4.4721e-03 -2.1165e-05 3.0872e-05 6.2483e-04 -2.2012e-05 8.9764e-06 
5.3603e-03 3.7783e-05 2.1773e-05 1.2614e-03 4.1003e-05 4.1863e-05 5.2868e-03 4.7056e-05 -3.7359e-06 1.3210e-03 3.8406e-06 -3.8766e-05 5.2532e-03 4.5566e-05 2.3004e-05 1.3489e-03 3.9252e-05 -1.3018e-04 5.1772e-03 -1.2441e-05 1.8842e-05 1.3754e-03 3.3935e-05 1.2084e-04 5.2722e-03 1.8257e-05 -4.8732e-05 1.3539e-03 2.3573e-05 3.4119e-05 
5.8617e-03 -1.6788e-05 2.4246e-04 1.6373e-03 -2.9653e-05 7.2238e-07 5.5716e-03 -1.3619e-05 -1.1249e-05 1.7166e-03 8.6562e-06 -4.4671e-05 5.5105e-03 3.9886e-05 3.1335e-05 1.7624e-03 -1.6545e-05 -4.8167e-05 5.4987e-03 -4.1524e-05 -6.4792e-05 1.8352e-03 -4.1383e-05 4.9798e-05 5.8334e-03 -6.9881e-05 -2.0351e-04 1.7381e-03 -2.6181e-05 3.9056e-05 
5.6016e-03 1.7233e-05 -1.1641e-06 1.6794e-03 3.3480e-05 -3.2991e-05 5.5052e-03 6.1351e-06 2.7184e-05 1.7769e-03 6.0661e-06 -2.1243e-05 5.5193e-03 1.5404e-05 -7.8603e-05 1.8043e-03 2.1929e-05 -4.4355e-05 5.5731e-03 2.5130e-05 -6.8095e-05 1.8310e-03 8.7795e-06 4.1476e-05 5.6633e-03 3.8083e-05 7.6812e-05 1.7781e-03 2.6741e-05 2.6131e-05 
5.2621e-03 -5.8463e-05 -2.6071e-05 1.4539e-03 -4.9991e-05 -6.6131e-05 5.1332e-03 -2.8338e-05 8.0817e-05 1.5207e-03 -2.4361e-05 3.7473e-05 5.0979e-03 -3.8569e-05 2.0513e-06 1.4998e-03 -1.3734e-05 -1.7602e-05 5.1351e-03 1.1363e-05 -7.9483e-05 1.5535e-03 7.8441e-07 2.9323e-05 5.2845e-03 -1.3574e-05 1.1032e-05 1.5054e-03 -3.8460e-05 2.2257e-05 
4.3887e-03 4.2961e-06 -3.9082e-05 7.3428e-04 1.0779e-06 2.1590e-05 4.3252e-03 2.1557e-05 3.1086e-05 7.2297e-04 -8.1957e-06 -3.0511e-06 4.3361e-03 6.4520e-06 -5.0546e-05 7.0351e-04 2.4037e-05 -1.8699e-05 4.3445e-03 4.8999e-05 3.5576e-06 7.9536e-04 6.1346e-05 4.6986e-06 4.4248e-03 3.6029e-05 4.6939e-05 8.1921e-04 2.9752e-05 -2.7633e-06 
3.0108e-03 -2.8368e-05 1.7333e-06 -6.2468e-04 -2.5596e-06 9.5264e-05 2.9576e-03 -1.1448e-05 2.6683e-06 -7.1042e-04 -1.4925e-05 -2.7898e-05 2.9708e-03 -1.0673e-05 -2.9632e-05 -6.2600e-04 -3.9274e-06 -8.6643e-05 3.0191e-03 1.4615e-05 -3.1840e-05 -5.6873e-04 -4.3779e-05 7.5011e-05 3.0811e-03 -2.8608e-05 6.1858e-05 -5.4789e-04 -6.4753e-05 -5.3939e-05 
0.0000e+00 0.0000e+00 0.0000e+00 0.0000e+00 0.0000e+00 0.0000e+00 0.0000e+00 0.0000e+00 0.0000e+00 0.0000e+00 0.0000e+00 0.0000e+00 0.0000e+00 0.0000e+00 0.0000e+00 0.0000e+00 0.0000e+00 0.0000e+00 0.0000e+00 0.0000e+00 0.0000e+00 0.0000e+00 0.0000e+00 0.0000e+00 0.0000e+00 0.0000e+00 0.0000e+00 0.0000e+00 0.0000e+00 0.0000e+00 
0.0000e+00 0.0000e+00 0.0000e+00 0.0000e+00 0.0000e+00 0.0000e+00 0.0000e+00 0.0000e+00 0.0000e+00 0.0000e+00 0.0000e+00 0.0000e+00 0.0000e+00 0.0000e+00 0.0000e+00 0.0000e+00 0.0000e+00 0.0000e+00 0.0000e+00 0.0000e+00 0.0000e+00 0.0000e+00 0.0000e+00 0.0000e+00 0.0000e+00 0.0000e+00 0.0000e+00 0.0000e+00 0.0000e+00 0.0000e+00 
3.2545e-03 5.9277e-06 -1.1651e-05 -4.8197e-04 4.5714e-05 7.5343e-06 3.2307e-03 6.4239e-06 8.8075e-06 -5.1358e-04 9.8573e-06 1.9096e-05 3.2151e-03 2.6486e-05 -3.8990e-06 -5.4421e-04 2.9106e-05 -1.7955e-05 3.1978e-03 -1.1317e-06 2.0483e-06 -4.9030e-04 5.1016e-05 6.8401e-06 3.2355e-03 4.9410e-05 -5.8300e-06 -4.4274e-04 2.9421e-05 -2.4322e-05 
5.0339e-03 -1.6701e-05 7.9053e-06 1.2467e-03 3.3297e-06 -9.7652e-06 4.9432e-03 -1.2746e-05 4.6287e-05 1.2301e-03 -2.5816e-05 -2.4001e-05 4.9416e-03 -2.1510e-05 -1.7293e-05 1.1844e-03 -1.2107e-04 9.0630e-06 4.9517e-03 -2.0607e-05 -3.3498e-05 1.2258e-03 6.2709e-05 1.3629e-05 4.9682e-03 -4.1983e-05 -2.5006e-05 1.2832e-03 -2.0435e-05 -6.9716e-06 
6.0669e-03 3.6392e-05 -1.0114e-05 2.2531e-03 2.2905e-05 -2.1703e-05 6.0086e-03 3.0784e-05 1.8306e-06 2.2164e-03 9.2885e-06 -3.5809e-06 5.9786e-03 4.4653e-05 -2.5692e-05 2.0513e-03 5.1145e-05 -1.3645e-06 5.9851e-03 -4.2769e-06 -9.3929e-06 2.0975e-03 1.2164e-05 -1.3746e-05 6.0111e-03 1.3150e-05 1.7690e-05 2.3191e-03 4.2901e-05 2.8187e-05 
6.5199e-03 -2.8484e-05 2.8486e-05 2.7488e-03 -2.5067e-05 7.0457e-06 6.4305e-03 -4.7397e-06 -4.1677e-05 2.7674e-03 -2.5405e-06 -1.1262e-04 6.4637e-03 -1.0363e-05 -1.0547e-04 2.6035e-03 8.8837e-05 -5.9479e-06 6.4113e-03 -3.2960e-05 6.2166e-05 2.7368e-03 -1.3114e-04 3.7840e-05 6.5072e-03 -2.8753e-05 3.1235e-05 2.7903e-03 -3.9690e-05 5.0553e-05 
6.5511e-03 2.2240e-05 3.9399e-05 2.7830e-03 4.4163e-06 2.1108e-05 6.4911e-03 2.2743e-05 -5.2339e-06 2.7404e-03 5.3108e-05 -5.4357e-05 6.4929e-03 2.3505e-05 -1.1888e-04 2.7402e-03 1.1628e-05 -3.4985e-05 6.4914e-03 3.1196e-05 2.6423e-05 2.8117e-03 -1.3536e-05 -1.2662e-05 6.5672e-03 -1.3417e-06 2.8941e-05 2.5653e-03 1.2666e-06 -1.1759e-05 
6.0256e-03 -5.8078e-05 1.0193e-04 2.3428e-03 -3.1459e-05 2.4615e-05 6.0269e-03 -2.8206e-05 -8.0441e-06 2.3526e-03 -1.8559e-05 -7.8154e-05 6.0113e-03 -5.1651e-06 -1.1127e-04 2.3077e-03 -7.0747e-06 -6.0069e-05 5.9852e-03 -9.9565e-06 -1.7189e-05 2.4117e-03 -1.9291e-05 2.4976e-05 6.1305e-03 -1.5291e-05 1.8140e-05 2.4283e-03 -5.4332e-05 7.8330e-05 
5.0208e-03 -3.6876e-06 5.0845e-05 1.3632e-03 2.2823e-05 5.2886e-05 4.9401e-03 1.2821e-05 1.6372e-05 1.3071e-03 7.9762e-06 9.8870e-07 4.9538e-03 7.0750e-06 -5.6863e-05 1.3052e-03 2.6565e-05 -5.5541e-05 4.9711e-03 5.3329e-05 -2.1019e-05 1.3992e-03 5.8579e-05 -5.3140e-05 5.0317e-03 4.1232e-05 -1.3219e-05 1.3926e-03 -1.9330e-05 3.7427e-05 
3.2213e-03 -1.3226e-05 1.0695e-05 -4.1510e-04 -5.8130e-05 -1.0184e-05 3.1659e-03 -1.1886e-05 1.1494e-05 -4.3572e-04 9.0431e-07 1.8830e-05 3.1864e-03 9.3601e-06 -4.5919e-06 -4.3726e-04 -2.3717e-05 -2.3308e-05 3.1871e-03 -7.7311e-06 -3.0841e-05 -3.9272e-04 -3.6575e-05 -7.0779e-06 3.2269e-03 -4.4691e-05 -8.7081e-06 -3.7402e-04 -2.2543e-05 8.0084e-06 
0.0000e+00 0.0000e+00 0.0000e+00 0.0000e+00 0.0000e+00 0.0000e+00 0.0000e+00 0.0000e+00 0.0000e+00 0.0000e+00 0.0000e+00 0.0000e+00 0.0000e+00 0.0000e+00 0.0000e+00 0.0000e+00 0.0000e+00 0.0000e+00 0.0000e+00 0.0000e+00 0.0000e+00 0.0000e+00 0.0000e+00 0.0000e+00 0.0000e+00 0.0000e+00 0.0000e+00 0.0000e+00 0.0000e+00 0.0000e+00 
0.0000e+00 0.0000e+00 0.0000e+00 0.0000e+00 0.0000e+00 0.0000e+00 0.0000e+00 0.0000e+00 0.0000e+00 0.0000e+00 0.0000e+00 0.0000e+00 0.0000e+00 0.0000e+00 0.0000e+00 0.0000e+00 0.0000e+00 0.0000e+00 0.0000e+00 0.0000e+00 0.0000e+00 0.0000e+00 0.0000e+00 0.0000e+00 0.0000e+00 0.0000e+00 0.0000e+00 0.0000e+00 0.0000e+00 0.0000e+00 
3.2747e-03 1.8413e-05 2.1790e-05 -4.2766e-04 1.3099e-05 1.9141e-05 3.2713e-03 7.0143e-05 4.4113e-06 -4.6180e-04 3.9037e-05 1.6893e-06 3.2502e-03 -4.6628e-05 -2.1424e-05 -4.5790e-04 4.2503e-05 -5.1862e-06 3.2530e-03 1.4034e-05 1.8731e-06 -4.1819e-04 3.6477e-05 -9.9000e-06 3.2288e-03 2.0059e-05 -6.3228e-06 -3.7276e-04 1.6692e-05 -6.6987e-06 
5.0893e-03 -1.8520e-05 4.4295e-05 1.4344e-03 -7.9110e-06 1.3035e-05 5.0923e-03 -1.7124e-05 1.7992e-05 1.3374e-03 -4.8022e-05 -4.3136e-05 5.0963e-03 -2.3056e-05 -2.5598e-05 1.3776e-03 6.4496e-06 2.5746e-05 5.0549e-03 -4.6821e-05 -1.2426e-05 1.4407e-03 -4.5415e-05 -1.5944e-05 5.0491e-03 -2.2465e-05 -2.7732e-05 1.4813e-03 -1.2603e-05 7.1970e-06 
6.2208e-03 2.6008e-05 2.8636e-05 2.5695e-03 3.3431e-05 4.1086e-05 6.1899e-03 -1.6099e-05 -4.5846e-06 2.5272e-03 -3.8230e-06 -4.7645e-05 6.1704e-03 2.2387e-05 -2.3493e-05 2.4139e-03 1.2845e-05 7.9787e-05 6.1308e-03 4.5767e-05 -1.7578e-06 2.4644e-03 2.5404e-05 -9.7131e-05 6.1697e-03 3.4622e-05 6.5526e-06 2.5668e-03 4.4450e-05 1.2959e-05 
6.7947e-03 -2.1550e-05 3.4320e-05 3.1327e-03 -1.7060e-05 2.7412e-05 6.7023e-03 -7.7614e-06 -4.8640e-05 3.1072e-03 -8.8469e-06 -1.5149e-05 6.6549e-03 -9.7359e-06 -4.4743e-05 3.0474e-03 -1.9267e-05 -7.9648e-05 6.6510e-03 -1.8068e-05 1.9641e-05 3.0572e-03 -5.9861e-05 -2.7365e-05 6.7578e-03 -4.0823e-05 1.9669e-05 3.0984e-03 6.8595e-07 6.1947e-05 
6.7966e-03 3.2468e-05 5.4934e-05 3.1683e-03 1.1475e-05 1.6997e-05 6.7791e-03 4.3791e-05 -2.0856e-05 3.1355e-03 5.4893e-05 -3.4803e-05 6.7638e-03 3.2234e-05 -3.1863e-05 3.1046e-03 3.0520e-05 -4.0570e-05 6.7078e-03 -1.5396e-05 -3.4893e-05 3.1194e-03 3.5762e-06 -1.2627e-05 6.7841e-03 -1.2854e-06 2.9170e-05 3.1655e-03 2.5042e-06 5.2586e-05 
6.2488e-03 -4.5450e-05 3.5583e-05 2.6673e-03 -3.1092e-05 2.0397e-05 6.2965e-03 -1.7537e-05 2.1188e-05 2.6470e-03 1.5618e-05 -2.5062e-05 6.3125e-03 5.5635e-06 -1.3100e-05 2.6429e-03 -3.4102e-05 -6.7876e-06 6.0501e-03 -2.0584e-05 -2.5747e-04 2.6686e-03 -2.4583e-05 8.9542e-06 6.0530e-03 -2.4336e-05 2.1063e-04 2.7172e-03 -4.2979e-05 -9.1055e-06 
5.1285e-03 -3.1318e-05 3.3085e-05 1.5823e-03 -1.0398e-06 -5.7352e-06 5.1451e-03 2.9017e-05 2.5498e-05 1.5462e-03 3.1287e-05 2.3015e-06 5.1569e-03 3.9623e-05 -2.6097e-05 1.5303e-03 2.7637e-05 -4.2244e-05 5.1382e-03 4.4897e-05 -3.8499e-05 1.5857e-03 4.1792e-05 -1.8769e-05 5.1518e-03 1.8349e-05 -7.3308e-06 1.6188e-03 -8.8911e-06 5.2085e-05 
3.2348e-03 -2.0870e-05 6.0044e-06 -2.9487e-04 -3.1199e-05 -2.7670e-06 3.2353e-03 -1.6049e-05 1.0200e-05 -3.3841e-04 -1.7752e-05 -5.7747e-06 3.2450e-03 -1.8258e-05 -1.4153e-05 -3.4397e-04 -2.8928e-05 -1.7109e-05 3.2618e-03 -6.7401e-06 -5.8958e-06 -2.9678e-04 -1.1268e-05 -8.1227e-06 3.2648e-03 1.8506e-06 -5.1518e-06 -2.6660e-04 -4.2374e-05 2.5190e-05 
0.0000e+00 0.0000e+00 0.0000e+00 0.0000e+00 0.0000e+00 0.0000e+00 0.0000e+00 0.0000e+00 0.0000e+00 0.0000e+00 0.0000e+00 0.0000e+00 0.0000e+00 0.0000e+00 0.0000e+00 0.0000e+00 0.0000e+00 0.0000e+00 0.0000e+00 0.0000e+00 0.0000e+00 0.0000e+00 0.0000e+00 0.0000e+00 0.0000e+00 0.0000e+00 0.0000e+00 0.0000e+00 0.0000e+00 0.0000e+00 
0.0000e+00 0.0000e+00 0.0000e+00 0.0000e+00 0.0000e+00 0.0000e+00 0.0000e+00 0.0000e+00 0.0000e+00 0.0000e+00 0.0000e+00 0.0000e+00 0.0000e+00 0.0000e+00 0.0000e+00 0.0000e+00 0.0000e+00 0.0000e+00 0.0000e+00 0.0000e+00 0.0000e+00 0.0000e+00 0.0000e+00 0.0000e+00 0.0000e+00 0.0000e+00 0.0000e+00 0.0000e+00 0.0000e+00 0.0000e+00 
3.1901e-03 4.6107e-05 5.6040e-06 -4.3368e-04 -7.6297e-05 2.5640e-06 3.1976e-03 3.8327e-05 8.2438e-06 -4.6733e-04 2.8693e-05 -6.6114e-06 3.1814e-03 -2.3513e-05 7.2028e-07 -4.1003e-04 5.7936e-05 1.8817e-05 3.1398e-03 1.4629e-05 -9.4982e-07 -3.9623e-04 4.9406e-05 -2.2706e-05 3.1457e-03 1.5355e-07 3.2565e-07 -3.6789e-04 7.1258e-05 1.3785e-05 
4.8481e-03 -2.3931e-05 1.2310e-05 1.3395e-03 -3.1077e-06 1.2924e-05 4.9254e-03 -5.5635e-05 -1.8450e-05 1.3186e-03 -7.9919e-05 -8.1579e-06 5.0171e-03 -9.7243e-06 7.0030e-06 1.3481e-03 9.0379e-06 -1.7019e-05 4.8862e-03 -1.3196e-05 -5.2757e-06 1.4056e-03 -2.2863e-05 4.7784e-07 4.8965e-03 -1.6329e-05 5.3018e-07 1.4187e-03 -1.2551e-05 5.5957e-06 
6.0567e-03 1.4705e-05 8.3049e-06 2.4725e-03 3.1769e-05 3.9400e-06 5.9737e-03 -4.1442e-05 -5.0259e-06 2.4400e-03 2.2176e-05 -1.4527e-05 5.9857e-03 -9.6466e-06 -1.4211e-05 2.4127e-03 -4.1599e-05 -1.1757e-05 5.9411e-03 6.4730e-05 -4.4960e-06 2.4296e-03 2.5215e-05 -1.3331e-06 5.9783e-03 4.9404e-05 6.6751e-06 2.4481e-03 4.8259e-05 1.0281e-05 
6.5951e-03 2.1837e-05 1.2942e-05 3.0325e-03 -4.0650e-05 -1.2212e-06 6.5238e-03 -3.4933e-05 -1.9683e-06 2.9989e-03 -8.5406e-06 -1.9719e-05 6.2508e-03 -1.8971e-06 -2.7974e-05 2.9443e-03 -2.5281e-05 -9.8940e-06 6.4626e-03 -6.0150e-05 -4.9574e-06 2.9076e-03 -7.0035e-05 -6.8086e-07 6.5821e-03 -1.4650e-05 8.5531e-06 2.9663e-03 5.0017e-05 1.5192e-05 
6.6124e-03 2.3794e-05 1.8129e-05 -5.5154e-04 3.0280e-05 1.3636e-05 6.5939e-03 8.2030e-05 -1.2285e-05 3.0429e-03 3.2859e-05 -2.5706e-05 6.5718e-03 5.5107e-05 -2.6915e-05 2.9876e-03 7.2667e-05 -1.9451e-05 6.3235e-03 -2.3242e-04 -9.0393e-06 2.9933e-03 3.4838e-05 4.5248e-06 6.3731e-03 1.9046e-04 1.6348e-05 3.0379e-03 -4.7751e-05 1.8410e-05 
6.1075e-03 -4.1382e-05 1.6179e-05 2.6137e-03 -4.1789e-05 4.0406e-06 6.1385e-03 3.9761e-05 -1.3606e-05 2.5641e-03 4.8425e-05 -2.8829e-05 6.2132e-03 -2.6231e-06 -2.8808e-05 2.5450e-03 -6.1578e-05 -2.4204e-05 5.6988e-03 -5.5198e-05 -1.0466e-05 -2.5114e-04 4.8154e-05 4.3481e-05 5.4876e-03 -2.0397e-05 2.1211e-05 2.5991e-03 -2.5001e-05 2.1898e-05 
4.9541e-03 -2.8422e-05 9.1525e-06 1.5504e-03 -5.2462e-06 2.5054e-06 5.0734e-03 2.0799e-05 -9.4139e-06 1.4966e-03 2.8387e-05 -2.2585e-05 5.0862e-03 3.4917e-05 -2.4526e-05 1.4951e-03 2.3842e-05 -2.1020e-05 4.8482e-03 2.4225e-04 -9.5539e-06 1.4870e-03 1.3104e-05 1.8791e-06 4.8144e-03 -1.8427e-04 1.0628e-05 1.5750e-03 2.0667e-05 1.2189e-05 
3.1406e-03 -6.5762e-05 2.8895e-06 -2.8780e-04 3.3164e-05 -3.5631e-07 3.1892e-03 -1.9401e-05 -6.4501e-06 -3.4407e-04 -1.7141e-05 -1.0723e-05 3.2136e-03 -2.9068e-05 -1.2157e-05 -3.5262e-04 -2.8198e-05 -1.0389e-05 3.2000e-03 -1.1264e-05 -7.5638e-06 -3.1851e-04 5.8186e-06 -2.6017e-06 3.2112e-03 6.9917e-05 -3.2569e-07 -2.5849e-04 -1.0961e-04 1.1205e-07 
0.0000e+00 0.0000e+00 0.0000e+00 0.0000e+00 0.0000e+00 0.0000e+00 0.0000e+00 0.0000e+00 0.0000e+00 0.0000e+00 0.0000e+00 0.0000e+00 0.0000e+00 0.0000e+00 0.0000e+00 0.0000e+00 0.0000e+00 0.0000e+00 0.0000e+00 0.0000e+00 0.0000e+00 0.0000e+00 0.0000e+00 0.0000e+00 0.0000e+00 0.0000e+00 0.0000e+00 0.0000e+00 0.0000e+00 0.0000e+00 
0.0000e+00 0.0000e+00 0.0000e+00 0.0000e+00 0.0000e+00 0.0000e+00 0.0000e+00 0.0000e+00 0.0000e+00 0.0000e+00 0.0000e+00 0.0000e+00 0.0000e+00 0.0000e+00 0.0000e+00 0.0000e+00 0.0000e+00 0.0000e+00 0.0000e+00 0.0000e+00 0.0000e+00 0.0000e+00 0.0000e+00 0.0000e+00 0.0000e+00 0.0000e+00 0.0000e+00 0.0000e+00 0.0000e+00 0.0000e+00 
3.0642e-03 2.3214e-05 3.6479e-07 -4.9251e-04 3.1965e-05 -8.4713e-06 3.0546e-03 1.8959e-05 -1.1912e-05 -4.9690e-04 3.5808e-05 -1.7460e-05 3.0497e-03 1.7729e-06 3.1098e-06 -4.6088e-04 1.3089e-05 -7.7636e-06 3.0106e-03 1.6096e-05 -1.6104e-05 -4.3279e-04 4.9690e-05 6.8401e-06 3.0373e-03 2.1355e-05 1.6925e-05 -4.4014e-04 1.3399e-05 1.7893e-05 
4.6519e-03 -1.7866e-05 -3.6255e-06 1.1080e-03 -1.2279e-05 6.7069e-06 4.6412e-03 -2.2251e-05 -2.4757e-05 1.1084e-03 -4.6100e-05 1.5631e-05 4.6550e-03 -2.0595e-05 -1.7873e-05 1.1206e-03 -1.6940e-05 -4.5317e-05 4.6529e-03 -3.4786e-05 2.1853e-06 1.1805e-03 -1.5499e-05 -1.1944e-05 4.6124e-03 -2.0488e-05 4.3476e-05 1.1740e-03 -1.6534e-05 2.5158e-05 
5.6293e-03 1.9073e-05 7.5396e-06 2.0750e-03 1.4206e-05 -2.0753e-05 5.5794e-03 -2.7893e-06 1.6185e-06 2.0530e-03 -1.2448e-05 1.7030e-05 5.5800e-03 -5.9281e-06 -7.0189e-06 2.0449e-03 2.7297e-05 -1.4774e-05 5.5476e-03 5.2414e-05 -1.0257e-05 2.0617e-03 2.6088e-05 8.2704e-06 5.5784e-03 4.1974e-05 1.2392e-05 2.0864e-03 4.4843e-05 2.0173e-05 
6.1217e-03 -2.4840e-05 -3.0994e-06 2.5423e-03 -3.3999e-05 -2.3621e-05 6.0256e-03 -1.5227e-05 3.7520e-05 2.4870e-03 -1.4793e-05 -9.1184e-06 5.9887e-03 -2.0702e-05 1.8523e-05 2.4740e-03 -2.7676e-05 4.5642e-05 5.9891e-03 -3.2417e-05 -3.3305e-05 2.4737e-03 -4.7773e-05 3.2703e-05 6.0878e-03 -2.3579e-05 8.3303e-06 2.5176e-03 1.1140e-05 -2.7345e-05 
6.1183e-03 2.1307e-05 -3.3561e-05 2.5704e-03 1.3658e-05 -2.3363e-05 6.1064e-03 4.2202e-05 1.2986e-05 2.5214e-03 5.6414e-05 1.8863e-05 6.0847e-03 3.4961e-05 -9.2624e-07 2.5071e-03 1.8693e-05 -3.3177e-06 6.0549e-03 -2.3025e-05 1.3187e-05 2.5382e-03 8.8305e-06 2.0777e-05 6.1116e-03 8.1265e-06 1.0258e-05 2.5653e-03 1.2666e-06 -1.1759e-05 
5.6650e-03 -4.1405e-05 -3.8335e-05 2.1685e-03 -2.1824e-05 -2.8070e-05 5.7190e-03 -1.0741e-05 -2.4960e-05 2.1274e-03 1.3103e-05 1.5949e-05 5.7211e-03 -5.3276e-06 -1.1834e-06 2.1220e-03 -4.1389e-05 -2.1863e-05 5.4830e-03 -2.2568e-05 2.3684e-04 2.1605e-03 -3.0295e-05 -3.2597e-06 5.4569e-03 -3.0040e-05 -1.7950e-04 2.1820e-03 -4.0510e-05 2.8011e-05 
4.7168e-03 -1.2583e-05 -3.1009e-05 1.2426e-03 1.1347e-05 -3.7374e-06 4.7381e-03 2.7132e-05 -2.9235e-05 1.1938e-03 2.5376e-05 -1.4080e-05 4.7522e-03 3.3044e-05 1.5190e-06 1.1916e-03 2.2671e-05 1.5550e-05 4.7435e-03 4.1327e-05 2.9638e-05 1.2343e-03 3.2102e-05 2.8199e-05 4.7389e-03 7.1868e-06 3.6811e-05 1.2623e-03 -3.8865e-06 -3.1339e-05 
3.0731e-03 -1.6896e-05 -5.9093e-06 -4.0746e-04 -2.2512e-05 -2.0869e-06 3.0710e-03 -1.3869e-05 -1.0827e-05 -4.5139e-04 -1.4235e-05 -3.0833e-06 3.0860e-03 -2.3450e-05 -1.6190e-06 -4.4924e-04 -3.1551e-05 7.9554e-06 3.1078e-03 -1.2664e-05 1.0667e-05 -4.1015e-04 -1.6564e-05 2.3485e-05 3.0954e-03 -3.3343e-07 2.0548e-05 -3.8104e-04 -4.4538e-05 -1.5913e-05 
0.0000e+00 0.0000e+00 0.0000e+00 0.0000e+00 0.0000e+00 0.0000e+00 0.0000e+00 0.0000e+00 0.0000e+00 0.0000e+00 0.0000e+00 0.0000e+00 0.0000e+00 0.0000e+00 0.0000e+00 0.0000e+00 0.0000e+00 0.0000e+00 0.0000e+00 0.0000e+00 0.0000e+00 0.0000e+00 0.0000e+00 0.0000e+00 0.0000e+00 0.0000e+00 0.0000e+00 0.0000e+00 0.0000e+00 0.0000e+00 
0.0000e+00 0.0000e+00 0.0000e+00 0.0000e+00 0.0000e+00 0.0000e+00 0.0000e+00 0.0000e+00 0.0000e+00 0.0000e+00 0.0000e+00 0.0000e+00 0.0000e+00 0.0000e+00 0.0000e+00 0.0000e+00 0.0000e+00 0.0000e+00 0.0000e+00 0.0000e+00 0.0000e+00 0.0000e+00 0.0000e+00 0.0000e+00 0.0000e+00 0.0000e+00 0.0000e+00 0.0000e+00 0.0000e+00 0.0000e+00 
2.8217e-03 -9.5870e-07 6.9003e-06 -6.7677e-04 4.0409e-05 -1.1648e-05 2.7957e-03 2.4537e-05 1.1690e-06 -6.7971e-04 3.2947e-05 7.9444e-06 2.7697e-03 -6.8626e-06 -5.4311e-06 -6.5038e-04 6.1718e-05 1.7490e-06 2.7465e-03 2.2045e-05 -2.4269e-06 -6.1416e-04 -5.3510e-06 -6.4312e-06 2.7918e-03 4.4442e-05 1.0107e-05 -6.3792e-04 1.3772e-05 1.7759e-05 
4.0578e-03 -1.5085e-05 2.3715e-06 5.4808e-04 -1.9522e-05 -2.6557e-05 3.9963e-03 -2.3628e-05 -2.2617e-05 5.2105e-04 -1.9573e-05 -3.3088e-06 3.9992e-03 -3.1098e-05 -8.3272e-06 5.7600e-04 -4.6690e-05 1.7155e-05 3.9609e-03 -2.4719e-05 5.6507e-06 6.1976e-04 -7.5312e-06 -2.3576e-05 4.0367e-03 -2.3511e-05 3.6617e-05 5.9029e-04 -1.4572e-05 3.6227e-05 
4.7399e-03 2.7299e-05 -2.7156e-06 1.2060e-03 1.0207e-05 -2.8692e-05 4.7163e-03 1.7464e-05 -1.1368e-05 1.1850e-03 -1.2298e-05 2.1440e-05 4.6784e-03 1.3925e-05 -3.8799e-06 1.2105e-03 2.4881e-05 -2.5130e-05 4.7028e-03 1.0605e-05 -2.2563e-06 1.2547e-03 5.0999e-05 -4.3886e-06 4.7333e-03 3.2602e-05 1.4354e-05 1.2615e-03 3.8856e-05 2.2413e-05 
5.0780e-03 -3.1723e-05 -5.0410e-06 1.5116e-03 -2.2908e-05 -2.2283e-05 4.9986e-03 -1.6771e-05 1.7512e-05 1.4729e-03 -2.5095e-05 4.6632e-05 5.0326e-03 -2.8705e-05 1.3143e-05 1.4659e-03 -2.7182e-05 -4.9725e-05 4.9936e-03 -2.8016e-05 -4.9840e-05 1.5385e-03 -2.5031e-05 1.4191e-07 5.0665e-03 -1.9644e-05 9.7897e-06 1.5465e-03 -2.5580e-05 3.4427e-07 
5.1024e-03 7.2864e-06 -1.1367e-05 1.5322e-03 1.1160e-05 -1.8186e-05 5.0707e-03 2.1564e-05 -1.5882e-05 1.4738e-03 4.8933e-05 1.7141e-05 5.0435e-03 1.8553e-05 7.4327e-06 1.4865e-03 -5.1106e-06 -1.8419e-05 5.0810e-03 3.7659e-05 8.4659e-06 1.5448e-03 -2.3047e-07 2.0424e-05 5.1162e-03 4.3393e-06 -1.2564e-06 1.5622e-03 3.3210e-05 -2.6789e-05 
4.7680e-03 -3.3902e-05 -5.0188e-05 1.2456e-03 -1.9545e-05 -2.5298e-05 4.7741e-03 -2.2183e-05 -1.3908e-05 1.1954e-03 -2.1470e-05 -1.1404e-05 4.7519e-03 -1.1573e-05 1.2494e-06 1.2140e-03 -1.6508e-05 8.3988e-06 4.7602e-03 -2.7669e-05 5.6439e-05 1.2571e-03 -3.1811e-05 5.1226e-05 4.8400e-03 -3.0193e-05 -4.0631e-06 1.2871e-03 -4.6110e-05 -4.4185e-05 
4.1232e-03 1.4479e-05 -1.4562e-05 5.6858e-04 2.0643e-05 -3.2940e-05 4.0704e-03 2.3666e-05 -2.8039e-05 5.2799e-04 1.9807e-05 -1.0248e-05 4.0687e-03 2.5512e-05 2.5438e-06 5.3487e-04 2.3458e-05 1.8973e-05 4.1074e-03 1.7188e-05 2.2602e-05 5.9941e-04 3.9236e-05 2.9602e-05 4.1240e-03 2.2510e-05 4.6754e-06 5.9953e-04 -1.2287e-05 -2.9750e-05 
2.8458e-03 -1.4242e-05 -1.5247e-05 -6.7522e-04 -3.5154e-05 -1.7706e-05 2.8279e-03 -1.1660e-05 -1.5499e-05 -7.0732e-04 -2.1844e-05 -5.4740e-06 2.8241e-03 -1.5710e-05 9.4265e-07 -6.9236e-04 -3.5042e-05 5.0818e-06 2.8458e-03 -1.2077e-05 1.1981e-05 -6.5643e-04 -3.7785e-05 1.6478e-06 2.8598e-03 -2.5762e-05 -2.2742e-06 -6.5277e-04 -1.5674e-05 -9.0607e-06 
0.0000e+00 0.0000e+00 0.0000e+00 0.0000e+00 0.0000e+00 0.0000e+00 0.0000e+00 0.0000e+00 0.0000e+00 0.0000e+00 0.0000e+00 0.0000e+00 0.0000e+00 0.0000e+00 0.0000e+00 0.0000e+00 0.0000e+00 0.0000e+00 0.0000e+00 0.0000e+00 0.0000e+00 0.0000e+00 0.0000e+00 0.0000e+00 0.0000e+00 0.0000e+00 0.0000e+00 0.0000e+00 0.0000e+00 0.0000e+00 
0.0000e+00 0.0000e+00 0.0000e+00 0.0000e+00 0.0000e+00 0.0000e+00 0.0000e+00 0.0000e+00 0.0000e+00 0.0000e+00 0.0000e+00 0.0000e+00 0.0000e+00 0.0000e+00 0.0000e+00 0.0000e+00 0.0000e+00 0.0000e+00 0.0000e+00 0.0000e+00 0.0000e+00 0.0000e+00 0.0000e+00 0.0000e+00 0.0000e+00 0.0000e+00 0.0000e+00 0.0000e+00 0.0000e+00 0.0000e+00 
2.2933e-03 1.7814e-05 9.2195e-06 -1.1723e-03 2.5519e-05 -3.4310e-06 2.2818e-03 1.9562e-05 -2.6224e-06 -1.1606e-03 3.2311e-05 -1.4424e-05 2.2411e-03 7.3055e-06 -6.0868e-08 -1.1303e-03 6.1184e-05 -3.8326e-06 2.2099e-03 2.8307e-05 2.5955e-06 -1.1122e-03 -2.3323e-06 -3.2218e-06 2.2641e-03 3.5298e-05 6.0277e-07 -1.1368e-03 8.9921e-06 1.7355e-05 
2.8228e-03 -2.0888e-05 2.4871e-05 -6.5425e-04 -1.8932e-05 -1.2634e-06 2.7969e-03 -1.6469e-05 -2.5334e-06 -6.6217e-04 -2.3424e-05 -1.9849e-05 2.7631e-03 -2.6126e-05 2.2881e-05 -6.1102e-04 -4.5243e-05 -5.7528e-05 2.7309e-03 -2.7773e-05 -6.9076e-06 -5.8687e-04 -8.3387e-06 4.0580e-05 2.8046e-03 -2.2696e-05 -6.1053e-06 -6.1664e-04 -1.8434e-05 1.3221e-05 
3.0895e-03 2.4769e-05 3.7212e-06 -4.0531e-04 2.0465e-05 1.4242e-06 3.0681e-03 1.7015e-05 1.5010e-05 -4.2155e-04 1.5840e-05 -1.6514e-05 3.0332e-03 2.2102e-05 1.1895e-05 -3.9979e-04 6.6027e-06 -7.3153e-07 3.0481e-03 1.4023e-05 7.0986e-06 -3.5521e-04 3.6162e-05 -6.1463e-06 3.0838e-03 3.0402e-05 6.2272e-07 -3.6867e-04 3.2698e-05 9.0983e-07 
3.2215e-03 -2.6488e-05 -2.2672e-06 -3.1204e-04 -2.1544e-05 -3.8318e-06 3.1983e-03 -2.2052e-05 1.6329e-05 -3.2935e-04 -2.8325e-05 -7.0144e-06 3.1758e-03 -2.7158e-05 -5.3998e-06 -3.3037e-04 -2.3951e-05 -1.7664e-06 3.1985e-03 -2.1938e-05 3.2278e-05 -2.7400e-04 -2.3538e-05 -8.9712e-06 3.2256e-03 -2.3620e-05 -4.7303e-07 -2.7744e-04 -2.2512e-05 -6.5940e-06 
3.2360e-03 1.4250e-05 -1.2987e-06 -3.0599e-04 1.6782e-05 -1.3966e-05 3.2107e-03 2.5546e-05 -2.9778e-06 -3.4280e-04 1.9695e-05 -1.1634e-05 3.1967e-03 1.4610e-05 8.7084e-06 -3.3027e-04 1.8434e-05 -7.2708e-07 3.2233e-03 3.0029e-05 1.9217e-05 -2.9009e-04 2.8167e-05 6.9927e-06 3.2471e-03 1.6532e-05 1.7552e-05 -2.8299e-04 1.7575e-05 -1.1778e-05 
3.1269e-03 -2.4432e-05 -1.9199e-06 -4.1372e-04 -2.6787e-05 -1.2323e-05 3.1052e-03 -2.6925e-05 -6.9137e-06 -4.5123e-04 -2.2148e-05 -1.1554e-05 3.0909e-03 -1.8736e-05 1.6074e-05 -4.3538e-04 -1.8273e-05 4.7025e-06 3.1220e-03 -2.5431e-05 7.1628e-06 -4.0141e-04 -2.8051e-05 3.0780e-06 3.1406e-03 -2.7411e-05 2.3499e-05 -3.9156e-04 -2.9690e-05 -9.6517e-06 