<?xml version="1.0"?>
<!-- openLBMflow v1.0.1, www.lbmflow.com -->
<VTKFile type="ImageData" version="0.1" byte_order="LittleEndian">
  <ImageData WholeExtent="0 9 0 9 0 9" Origin="0 0 0" Spacing="1 1 1">
  <Piece Extent="0 9 0 9 0 9">
    <PointData Scalars="scalars">
      <DataArray type="Float32" Name="Velocity" NumberOfComponents="3" format="ascii">
0.0000e+00 0.0000e+00 0.0000e+00 0.0000e+00 0.0000e+00 0.0000e+00 0.0000e+00 0.0000e+00 0.0000e+00 0.0000e+00 0.0000e+00 0.0000e+00 0.0000e+00 0.0000e+00 0.0000e+00 0.0000e+00 0.0000e+00 0.0000e+00 0.0000e+00 0.0000e+00 0.0000e+00 0.0000e+00 0.0000e+00 0.0000e+00 0.0000e+00 0.0000e+00 0.0000e+00 0.0000e+00 0.0000e+00 0.0000e+00 
0.0000e+00 0.0000e+00 0.0000e+00 0.0000e+00 0.0000e+00 0.0000e+00 0.0000e+00 0.0000e+00 0.0000e+00 0.0000e+00 0.0000e+00 0.0000e+00 0.0000e+00 0.0000e+00 0.0000e+00 0.0000e+00 0.0000e+00 0.0000e+00 0.0000e+00 0.0000e+00 0.0000e+00 0.0000e+00 0.0000e+00 0.0000e+00 0.0000e+00 0.0000e+00 0.0000e+00 0.0000e+00 0.0000e+00 0.0000e+00 
0.0000e+00 0.0000e+00 0.0000e+00 0.0000e+00 0.0000e+00 0.0000e+00 0.0000e+00 0.0000e+00 0.0000e+00 0.0000e+00 0.0000e+00 0.0000e+00 0.0000e+00 0.0000e+00 0.0000e+00 0.0000e+00 0.0000e+00 0.0000e+00 0.0000e+00 0.0000e+00 0.0000e+00 0.0000e+00 0.0000e+00 0.0000e+00 0.0000e+00 0.0000e+00 0.0000e+00 0.0000e+00 0.0000e+00 0.0000e+00 
0.0000e+00 0.0000e+00 0.0000e+00 0.0000e+00 0.0000e+00 0.0000e+00 0.0000e+00 0.0000e+00 0.0000e+00 0.0000e+00 0.0000e+00 0.0000e+00 0.0000e+00 0.0000e+00 0.0000e+00 0.0000e+00 0.0000e+00 0.0000e+00 0.0000e+00 0.0000e+00 0.0000e+00 0.0000e+00 0.0000e+00 0.0000e+00 0.0000e+00 0.0000e+00 0.0000e+00 0.0000e+00 0.0000e+00 0.0000e+00 
0.0000e+00 0.0000e+00 0.0000e+00 0.0000e+00 0.0000e+00 0.0000e+00 0.0000e+00 0.0000e+00 0.0000e+00 0.0000e+00 0.0000e+00 0.0000e+00 0.0000e+00 0.0000e+00 0.0000e+00 0.0000e+00 0.0000e+00 0.0000e+00 0.0000e+00 0.0000e+00 0.0000e+00 0.0000e+00 0.0000e+00 0.0000e+00 0.0000e+00 0.0000e+00 0.0000e+00 0.0000e+00 0.0000e+00 0.0000e+00 
0.0000e+00 0.0000e+00 0.0000e+00 0.0000e+00 0.0000e+00 0.0000e+00 0.0000e+00 0.0000e+00 0.0000e+00 0.0000e+00 0.0000e+00 0.0000e+00 0.0000e+00 0.0000e+00 0.0000e+00 0.0000e+00 0.0000e+00 0.0000e+00 0.0000e+00 0.0000e+00 0.0000e+00 0.0000e+00 0.0000e+00 0.0000e+00 0.0000e+00 0.0000e+00 0.0000e+00 0.0000e+00 0.0000e+00 0.0000e+00 
0.0000e+00 0.0000e+00 0.0000e+00 0.0000e+00 0.0000e+00 0.0000e+00 0.0000e+00 0.0000e+00 0.0000e+00 0.0000e+00 0.0000e+00 0.0000e+00 0.0000e+00 0.0000e+00 0.0000e+00 0.0000e+00 0.0000e+00 0.0000e+00 0.0000e+00 0.0000e+00 0.0000e+00 0.0000e+00 0.0000e+00 0.0000e+00 0.0000e+00 0.0000e+00 0.0000e+00 0.0000e+00 0.0000e+00 0.0000e+00 
0.0000e+00 0.0000e+00 0.0000e+00 0.0000e+00 0.0000e+00 0.0000e+00 0.0000e+00 0.0000e+00 0.0000e+00 0.0000e+00 0.0000e+00 0.0000e+00 0.0000e+00 0.0000e+00 0.0000e+00 0.0000e+00 0.0000e+00 0.0000e+00 0.0000e+00 0.0000e+00 0.0000e+00 0.0000e+00 0.0000e+00 0.0000e+00 0.0000e+00 0.0000e+00 0.0000e+00 0.0000e+00 0.0000e+00 0.0000e+00 
0.0000e+00 0.0000e+00 0.0000e+00 0.0000e+00 0.0000e+00 0.0000e+00 0.0000e+00 0.0000e+00 0.0000e+00 0.0000e+00 0.0000e+00 0.0000e+00 0.0000e+00 0.0000e+00 0.0000e+00 0.0000e+00 0.0000e+00 0.0000e+00 0.0000e+00 0.0000e+00 0.0000e+00 0.0000e+00 0.0000e+00 0.0000e+00 0.0000e+00 0.0000e+00 0.0000e+00 0.0000e+00 0.0000e+00 0.0000e+00 
0.0000e+00 0.0000e+00 0.0000e+00 0.0000e+00 0.0000e+00 0.0000e+00 0.0000e+00 0.0000e+00 0.0000e+00 0.0000e+00 0.0000e+00 0.0000e+00 0.0000e+00 0.0000e+00 0.0000e+00 0.0000e+00 0.0000e+00 0.0000e+00 0.0000e+00 0.0000e+00 0.0000e+00 0.0000e+00 0.0000e+00 0.0000e+00 0.0000e+00 0.0000e+00 0.0000e+00 0.0000e+00 0.0000e+00 0.0000e+00 
0.0000e+00 0.0000e+00 0.0000e+00 0.0000e+00 0.0000e+00 0.0000e+00 0.0000e+00 0.0000e+00 0.0000e+00 0.0000e+00 0.0000e+00 0.0000e+00 0.0000e+00 0.0000e+00 0.0000e+00 0.0000e+00 0.0000e+00 0.0000e+00 0.0000e+00 0.0000e+00 0.0000e+00 0.0000e+00 0.0000e+00 0.0000e+00 0.0000e+00 0.0000e+00 0.0000e+00 0.0000e+00 0.0000e+00 0.0000e+00 
2.2432e-03 2.5820e-05 -2.0381e-05 -1.1421e-03 -9.6672e-05 -3.5075e-06 2.4549e-03 1.0973e-04 1.9533e-05 -1.3634e-03 -1.7331e-04 -3.4700e-06 2.6104e-03 7.3895e-05 -5.4043e-06 -1.4089e-03 1.5176e-04 -2.6400e-05 2.7355e-03 1.9849e-05 1.3376e-07 -1.3367e-03 2.3261e-04 5.3883e-05 2.5447e-03 -8.8987e-05 -3.8084e-05 -9.3616e-04 -6.1363e-05 -1.9312e-05 
2.8273e-03 -4.4954e-05 -9.8889e-06 -5.9731e-04 2.0799e-05 -7.2693e-05 3.1023e-03 5.8411e-06 3.7975e-05 -8.6928e-04 1.3640e-05 -9.1144e-05 3.4487e-03 -1.1426e-06 3.2962e-07 -8.6577e-04 4.2427e-05 5.9198e-05 3.3837e-03 -1.3108e-04 -6.9752e-05 -3.4689e-04 -3.6557e-05 9.9078e-05 2.8086e-03 2.1026e-05 2.4746e-05 -1.6312e-04 -1.5472e-04 3.8815e-05 
3.3794e-03 4.2500e-05 -4.2967e-06 -3.6390e-04 1.4045e-04 -2.6151e-05 3.4014e-03 -1.8560e-05 2.5924e-05 -5.2262e-04 3.8906e-05 -3.4836e-05 3.5997e-03 -4.0844e-05 -2.2796e-05 -4.3240e-04 5.6250e-05 7.6303e-05 3.3441e-03 6.7282e-05 -1.0929e-04 1.1220e-04 -1.8261e-04 5.5487e-05 3.2303e-03 7.7922e-05 9.0399e-05 -4.5547e-05 7.3840e-05 -3.6381e-05 
3.6495e-03 2.8353e-05 -1.7538e-05 -8.7115e-05 -3.6427e-04 -4.2209e-05 3.5905e-03 -7.1513e-05 -4.0292e-05 -3.1798e-04 9.1769e-05 7.0032e-05 3.5841e-03 -1.0941e-04 -2.1389e-05 -7.6047e-05 -1.1604e-04 3.2367e-05 3.3493e-03 1.0540e-04 -2.8652e-05 -6.1667e-05 -3.5279e-05 3.6067e-05 3.3959e-03 -7.7534e-05 5.4836e-05 1.3010e-04 2.9944e-04 -6.2758e-05 
3.0396e-03 -9.0762e-07 -6.8058e-06 1.5762e-04 2.3602e-05 -1.0414e-04 3.8335e-03 5.8159e-05 -5.1613e-05 -2.8965e-04 6.6013e-05 1.6383e-04 3.3864e-03 6.5603e-05 -3.6780e-05 -2.5502e-05 -5.6680e-05 -6.1750e-05 3.4180e-03 -1.4233e-05 4.8967e-05 -2.0255e-04 4.8229e-05 3.3544e-05 3.4721e-03 6.2315e-05 -6.5788e-06 3.4439e-04 9.1708e-05 -2.1884e-06 
3.3635e-03 -8.7661e-05 -1.3614e-06 -8.7691e-05 3.1898e-04 -5.2697e-05 3.3182e-03 -2.2877e-05 -4.0461e-05 -3.2562e-04 -1.7995e-04 6.2915e-05 3.2969e-03 5.6446e-05 -9.1089e-06 -2.7974e-04 5.4410e-05 -1.8760e-05 3.4745e-03 9.1498e-05 1.5043e-05 -1.6808e-04 1.6518e-04 5.6587e-05 3.4053e-03 -1.2453e-04 -1.5131e-04 3.9278e-05 -4.3977e-04 2.3067e-05 
2.9530e-03 -2.5921e-05 -1.7245e-06 -5.3513e-04 -3.8159e-05 1.4714e-05 2.8335e-03 3.4319e-05 -2.9701e-05 -5.5537e-04 8.2258e-05 -5.5477e-05 2.9925e-03 7.1376e-05 -2.0764e-05 -6.1353e-04 6.8859e-05 2.8593e-06 3.1820e-03 6.5922e-06 -6.3221e-06 -5.1882e-04 -6.2808e-05 -1.1748e-06 2.8968e-03 -2.7332e-05 -5.5460e-05 -3.3170e-04 -1.2704e-05 2.7208e-06 
2.2755e-03 -3.0862e-05 -1.4236e-05 -1.0757e-03 -6.5603e-05 -8.7742e-06 2.2741e-03 -3.5298e-05 -1.9463e-06 -3.3098e-04 1.3386e-05 3.7967e-06 2.3063e-03 -3.0331e-05 -2.0126e-05 -1.1236e-03 -6.2065e-05 -7.3751e-06 2.3885e-03 -1.1416e-04 6.7002e-06 -9.5497e-04 -1.3869e-04 7.4059e-06 2.4265e-03 9.5745e-05 -2.2062e-06 -9.7514e-04 1.0750e-04 5.2492e-06 
0.0000e+00 0.0000e+00 0.0000e+00 0.0000e+00 0.0000e+00 0.0000e+00 0.0000e+00 0.0000e+00 0.0000e+00 0.0000e+00 0.0000e+00 0.0000e+00 0.0000e+00 0.0000e+00 0.0000e+00 0.0000e+00 0.0000e+00 0.0000e+00 0.0000e+00 0.0000e+00 0.0000e+00 0.0000e+00 0.0000e+00 0.0000e+00 0.0000e+00 0.0000e+00 0.0000e+00 0.0000e+00 0.0000e+00 0.0000e+00 
0.0000e+00 0.0000e+00 0.0000e+00 0.0000e+00 0.0000e+00 0.0000e+00 0.0000e+00 0.0000e+00 0.0000e+00 0.0000e+00 0.0000e+00 0.0000e+00 0.0000e+00 0.0000e+00 0.0000e+00 0.0000e+00 0.0000e+00 0.0000e+00 0.0000e+00 0.0000e+00 0.0000e+00 0.0000e+00 0.0000e+00 0.0000e+00 0.0000e+00 0.0000e+00 0.0000e+00 0.0000e+00 0.0000e+00 0.0000e+00 
2.9229e-03 -2.4468e-06 -4.9064e-06 -7.0793e-04 -3.7017e-06 5.3666e-05 3.0122e-03 6.6860e-05 -2.9822e-05 -7.4938e-04 3.5256e-05 -1.1265e-05 3.1164e-03 5.2213e-05 5.8969e-06 -7.5564e-04 8.2843e-05 3.5144e-05 3.2032e-03 1.2580e-05 -4.3281e-05 -6.7532e-04 1.6027e-05 -2.0779e-05 3.0983e-03 -4.6153e-05 3.8405e-05 -6.5755e-04 -8.0155e-06 -5.8164e-05 
4.3238e-03 -6.4639e-05 -1.0927e-05 6.4360e-04 -2.3515e-05 1.0273e-04 4.4485e-03 -8.9532e-06 -4.5260e-05 5.4827e-04 1.7530e-05 4.9040e-05 4.5851e-03 6.3492e-07 -1.8121e-05 5.9781e-04 5.2399e-05 -2.8467e-05 4.5992e-03 1.5331e-05 2.7414e-05 8.8609e-04 -5.1759e-05 -1.9426e-04 4.4926e-03 -1.0262e-04 5.9763e-08 8.9050e-04 -1.2376e-04 5.2088e-05 
5.1757e-03 -2.7160e-05 1.3485e-06 1.3947e-03 6.0844e-05 -3.9997e-06 5.2361e-03 2.7367e-05 -3.3673e-05 1.3429e-03 2.7715e-05 3.5696e-05 5.2829e-03 5.2859e-05 -6.2535e-06 1.5027e-03 5.7604e-05 -4.8299e-05 5.2364e-03 4.5824e-05 8.4672e-05 1.5793e-03 3.6575e-05 -1.3320e-05 5.1996e-03 -2.3868e-05 -5.7840e-05 1.5633e-03 -7.2231e-05 2.6340e-05 
5.6084e-03 -2.4616e-05 -2.7545e-05 1.7677e-03 2.4989e-05 -4.0056e-05 5.5719e-03 -5.3667e-06 2.9592e-07 1.7796e-03 -2.3819e-05 3.5508e-06 5.5555e-03 -1.1074e-05 5.3026e-05 1.8744e-03 -3.7298e-05 -7.9081e-06 5.5017e-03 -3.1342e-05 -3.3165e-06 1.9018e-03 -4.6104e-05 6.4139e-06 5.5193e-03 -6.0696e-05 -2.7692e-05 1.8727e-03 -4.9555e-05 5.2184e-05 
5.6065e-03 -2.8834e-06 -6.8528e-05 2.0624e-03 3.0264e-05 3.1689e-04 5.5525e-03 5.6744e-05 -7.1000e-06 1.8304e-03 5.4362e-05 -1.5108e-04 5.5422e-03 6.6782e-05 6.6769e-05 1.9225e-03 3.5848e-05 1.1533e-04 5.4705e-03 5.2416e-06 -2.3252e-05 1.8518e-03 8.2305e-08 1.6571e-06 5.5001e-03 6.8947e-06 -8.0588e-06 2.1134e-03 -1.5073e-05 -2.8348e-04 
5.1316e-03 -5.3080e-05 -4.6337e-05 1.5160e-03 -5.4395e-05 -4.6559e-05 5.0836e-03 -1.4681e-05 -2.6443e-05 1.5355e-03 -2.0732e-06 -2.8933e-05 5.1207e-03 2.6904e-05 2.1495e-06 1.5406e-03 7.1456e-06 8.7111e-05 5.1230e-03 -3.1125e-05 2.3245e-05 1.5291e-03 -2.0333e-05 -4.9071e-05 5.0972e-03 -4.4413e-05 -3.7871e-05 1.5008e-03 -5.0305e-05 -4.5881e-05 
4.2527e-03 1.3323e-05 -2.6233e-05 7.8259e-04 -1.2614e-05 -6.1359e-05 4.2304e-03 2.0348e-05 -2.0525e-05 7.7944e-04 5.6747e-05 4.0783e-05 4.2743e-03 2.9859e-05 -2.3185e-05 7.7686e-04 4.7867e-05 6.9650e-06 4.4017e-03 2.3771e-05 -8.0808e-05 9.1769e-04 -1.5786e-05 -1.3945e-04 4.3932e-03 -2.2640e-05 8.5722e-05 9.1727e-04 1.4761e-06 1.1882e-04 
2.8423e-03 -7.2241e-06 -1.1505e-05 -5.4932e-04 -3.6153e-05 -1.4964e-05 2.8556e-03 -3.1298e-05 -1.9736e-05 -5.5099e-04 -2.1072e-05 -1.7088e-06 2.8587e-03 -2.1575e-06 2.1443e-06 -5.6189e-04 -3.9206e-05 5.0197e-07 2.8422e-03 -1.8748e-05 2.9566e-05 -5.6777e-04 -2.9430e-05 3.0447e-05 2.8535e-03 -3.9998e-05 -4.4099e-06 -5.4631e-04 -2.3358e-05 -6.2116e-06 
0.0000e+00 0.0000e+00 0.0000e+00 0.0000e+00 0.0000e+00 0.0000e+00 0.0000e+00 0.0000e+00 0.0000e+00 0.0000e+00 0.0000e+00 0.0000e+00 0.0000e+00 0.0000e+00 0.0000e+00 0.0000e+00 0.0000e+00 0.0000e+00 0.0000e+00 0.0000e+00 0.0000e+00 0.0000e+00 0.0000e+00 0.0000e+00 0.0000e+00 0.0000e+00 0.0000e+00 0.0000e+00 0.0000e+00 0.0000e+00 
0.0000e+00 0.0000e+00 0.0000e+00 0.0000e+00 0.0000e+00 0.0000e+00 0.0000e+00 0.0000e+00 0.0000e+00 0.0000e+00 0.0000e+00 0.0000e+00 0.0000e+00 0.0000e+00 0.0000e+00 0.0000e+00 0.0000e+00 0.0000e+00 0.0000e+00 0.0000e+00 0.0000e+00 0.0000e+00 0.0000e+00 0.0000e+00 0.0000e+00 0.0000e+00 0.0000e+00 0.0000e+00 0.0000e+00 0.0000e+00 
3.2401e-03 -2.8055e-05 -1.0400e-05 -5.2847e-04 4.4511e-05 -1.0198e-05 3.2580e-03 1.5959e-05 1.5435e-05 -5.3113e-04 5.8316e-05 -1.2370e-06 3.3161e-03 5.3812e-05 2.4279e-06 -5.5094e-04 2.5529e-05 -2.6710e-06 3.3391e-03 2.8451e-05 -6.0938e-06 -4.9881e-04 2.0219e-05 -4.0233e-06 3.3341e-03 -2.2125e-05 -1.4295e-05 -5.1578e-04 -3.0510e-05 9.8733e-06 
5.0576e-03 -6.5408e-05 -2.2020e-05 1.2080e-03 -4.8086e-05 6.0225e-06 5.0716e-03 -3.5456e-05 -1.8431e-05 1.2247e-03 1.1591e-05 -1.7253e-05 5.1099e-03 1.9434e-05 2.4759e-06 1.2181e-03 3.2332e-05 1.6337e-05 5.1596e-03 3.4318e-05 1.9939e-05 1.2822e-03 -4.6382e-05 1.6732e-05 5.1463e-03 -1.0122e-04 8.8815e-06 1.2576e-03 -8.5200e-05 -2.0029e-05 
6.1189e-03 -3.3273e-05 -2.4537e-05 2.2614e-03 -1.1108e-05 1.0250e-05 6.1297e-03 4.4128e-05 7.3648e-06 2.2826e-03 4.8444e-05 -8.8094e-06 6.1327e-03 6.9962e-05 3.6925e-05 2.3384e-03 7.1371e-05 8.6804e-06 6.1583e-03 4.3937e-05 -2.7966e-05 2.3142e-03 9.5076e-06 5.5302e-06 6.1737e-03 -6.0153e-05 1.8902e-06 2.3805e-03 -4.0149e-05 -4.1264e-06 
6.5911e-03 -5.5559e-05 -2.2438e-05 2.8358e-03 1.8813e-05 -1.7189e-05 6.5926e-03 2.1747e-05 4.3455e-06 2.8204e-03 -3.3391e-05 2.5138e-05 6.5759e-03 1.2177e-05 1.1013e-05 2.8544e-03 3.0022e-05 3.3328e-05 6.6018e-03 -8.2659e-05 -1.4156e-05 2.8550e-03 -5.1586e-05 1.2807e-05 6.6215e-03 -1.9919e-05 2.3655e-05 2.8776e-03 -8.9788e-05 -3.7253e-05 
6.6131e-03 1.5765e-06 -4.4723e-05 2.9070e-03 6.2523e-05 -2.4138e-05 6.4888e-03 4.3122e-05 -6.1355e-06 2.8962e-03 4.2322e-05 4.0955e-05 6.6069e-03 5.2069e-05 3.2638e-05 2.8574e-03 6.7847e-05 -5.0206e-05 6.5220e-03 -4.6663e-06 -5.5513e-05 2.9386e-03 -4.5249e-05 1.6781e-05 6.5465e-03 -4.3948e-06 7.9943e-05 2.8525e-03 -4.3706e-05 3.3462e-05 
5.9865e-03 -2.6423e-05 6.3553e-05 2.4311e-03 -5.1158e-05 3.0327e-05 5.9268e-03 -8.3281e-06 1.4361e-05 2.4462e-03 4.8579e-05 -2.2390e-06 6.0304e-03 -4.8929e-06 -4.9786e-05 2.4291e-03 -4.7926e-05 -7.9924e-05 5.9560e-03 1.2986e-05 -9.5339e-05 2.4546e-03 -3.7706e-05 -9.6843e-07 5.9831e-03 -1.0102e-04 4.5559e-05 2.4091e-03 -5.0781e-05 4.0128e-05 
4.9171e-03 2.9065e-06 4.8823e-06 1.4201e-03 -7.2825e-06 1.9126e-05 4.9307e-03 3.1807e-05 -3.1464e-05 1.4446e-03 4.0194e-05 -3.3874e-05 4.8969e-03 4.9115e-05 -6.1504e-05 1.4618e-03 2.3013e-05 -5.4114e-05 4.9510e-03 4.1070e-05 -9.5222e-06 1.4170e-03 1.6804e-05 2.9138e-05 4.9070e-03 -4.4818e-05 4.9960e-05 1.4472e-03 -6.9397e-06 -1.9413e-07 
3.1156e-03 -4.7372e-06 -1.2114e-06 -3.2713e-04 -3.2238e-06 -7.5292e-06 3.1228e-03 -1.4655e-05 -1.8830e-05 -3.0136e-04 -5.7603e-05 -3.3950e-05 3.1421e-03 -8.0311e-06 -1.6343e-05 -3.1371e-04 1.3631e-05 -1.8653e-05 3.1302e-03 -3.0078e-05 -1.2640e-06 -3.3471e-04 -6.2294e-05 2.6492e-05 3.1211e-03 -2.6902e-05 1.4176e-06 -3.1508e-04 -3.8279e-05 -6.8120e-07 
0.0000e+00 0.0000e+00 0.0000e+00 0.0000e+00 0.0000e+00 0.0000e+00 0.0000e+00 0.0000e+00 0.0000e+00 0.0000e+00 0.0000e+00 0.0000e+00 0.0000e+00 0.0000e+00 0.0000e+00 0.0000e+00 0.0000e+00 0.0000e+00 0.0000e+00 0.0000e+00 0.0000e+00 0.0000e+00 0.0000e+00 0.0000e+00 0.0000e+00 0.0000e+00 0.0000e+00 0.0000e+00 0.0000e+00 0.0000e+00 
0.0000e+00 0.0000e+00 0.0000e+00 0.0000e+00 0.0000e+00 0.0000e+00 0.0000e+00 0.0000e+00 0.0000e+00 0.0000e+00 0.0000e+00 0.0000e+00 0.0000e+00 0.0000e+00 0.0000e+00 0.0000e+00 0.0000e+00 0.0000e+00 0.0000e+00 0.0000e+00 0.0000e+00 0.0000e+00 0.0000e+00 0.0000e+00 0.0000e+00 0.0000e+00 0.0000e+00 0.0000e+00 0.0000e+00 0.0000e+00 
3.3061e-03 -2.7040e-05 1.4819e-05 -4.6661e-04 6.1559e-06 1.3450e-05 3.3392e-03 1.2747e-06 -9.8526e-06 -4.5560e-04 2.6986e-05 1.7410e-05 3.3786e-03 6.2068e-05 3.3943e-05 -4.7703e-04 1.5709e-05 2.5283e-05 3.3991e-03 3.7326e-05 7.6634e-07 -4.5125e-04 6.6932e-05 -1.1889e-05 3.3942e-03 -3.7044e-05 -3.5319e-05 -4.5281e-04 -1.2006e-06 -4.4066e-05 
5.2354e-03 -7.4141e-05 1.0833e-05 1.3871e-03 -4.5333e-05 1.7221e-05 5.2645e-03 -2.3244e-05 3.5936e-05 1.4159e-03 1.1780e-05 3.7446e-05 5.3042e-03 1.7592e-05 4.4688e-05 1.3963e-03 4.5517e-05 3.8149e-05 5.3375e-03 6.7884e-06 -1.0944e-05 1.4312e-03 -3.1997e-05 -5.5188e-05 5.3275e-03 -6.0369e-05 -6.1722e-05 1.4333e-03 -8.8059e-05 -3.1051e-05 
6.4471e-03 -3.5999e-05 1.8748e-07 2.3234e-03 -2.5088e-06 2.5839e-04 6.4410e-03 2.0368e-05 5.7565e-05 2.5522e-03 4.9855e-05 3.6650e-05 6.4778e-03 6.5558e-05 3.1470e-05 2.5769e-03 8.4855e-05 3.3324e-05 6.4832e-03 2.7709e-05 -4.4038e-05 2.6170e-03 8.4154e-06 -4.0225e-05 6.4995e-03 -3.0373e-06 -1.6172e-05 2.3825e-03 -5.6763e-05 -2.6212e-04 
6.9884e-03 -4.0833e-05 1.8982e-05 3.1805e-03 1.6368e-05 5.9336e-05 6.9572e-03 -1.8887e-06 1.8301e-05 2.9007e-03 5.5677e-06 -2.4979e-04 6.9773e-03 8.3570e-07 2.5534e-05 2.8746e-03 -2.7754e-05 2.7155e-04 6.9872e-03 -5.7426e-05 -5.9675e-05 3.1488e-03 -5.6944e-05 -5.8420e-05 7.0008e-03 -1.0857e-05 2.4523e-05 3.1529e-03 -4.2355e-05 1.4548e-05 
6.8341e-03 2.9586e-05 4.3531e-05 3.2614e-03 5.7919e-05 4.0643e-05 6.8481e-03 7.1201e-05 2.7827e-05 3.2553e-03 4.7399e-05 1.4209e-05 6.8929e-03 5.2011e-05 9.8941e-06 3.0817e-03 -8.8441e-07 -8.8953e-05 6.8576e-03 -1.9847e-05 -2.9236e-05 3.0771e-03 -1.4270e-05 -1.9225e-05 6.8229e-03 -3.1909e-05 -2.7383e-05 3.0808e-03 -8.4450e-06 8.9625e-05 
6.1311e-03 -3.1968e-05 4.5312e-05 2.7292e-03 -1.5796e-05 2.1647e-05 6.2031e-03 -5.9744e-06 5.8140e-05 2.7639e-03 -3.3509e-06 -3.4655e-06 6.2577e-03 -1.4566e-05 -2.7688e-05 2.5831e-03 -2.0083e-06 -8.4882e-05 6.1575e-03 -1.2528e-06 -4.8728e-05 2.5571e-03 -4.1137e-05 5.9202e-06 6.0887e-03 -8.0465e-05 -1.1104e-05 2.5696e-03 -8.7082e-05 7.6461e-05 
5.0448e-03 -1.9558e-05 2.5967e-05 1.6060e-03 2.3292e-06 5.6299e-05 5.0907e-03 2.4302e-05 3.7818e-05 1.6448e-03 3.4836e-05 -3.1184e-05 5.0971e-03 4.6359e-05 -3.7692e-05 1.5896e-03 6.8191e-05 1.7666e-06 5.0409e-03 9.6412e-05 -7.7514e-05 1.5616e-03 1.3266e-05 -3.0441e-05 4.9858e-03 -6.2673e-05 5.5990e-05 1.5761e-03 -4.5189e-05 3.5652e-06 
3.2169e-03 -2.2826e-05 6.7186e-06 -2.8023e-04 -4.5639e-05 2.8590e-05 3.2193e-03 -1.5565e-05 1.1394e-05 -2.6346e-04 -2.5908e-05 -6.3204e-06 3.2294e-03 1.8453e-06 -3.1681e-05 -2.5493e-04 9.8310e-06 -9.5169e-06 3.2003e-03 4.9189e-07 -1.5158e-05 -2.7877e-04 -4.6827e-05 6.1270e-08 3.1839e-03 -6.2381e-05 3.7120e-05 -2.6334e-04 -3.8408e-05 -5.7271e-06 
0.0000e+00 0.0000e+00 0.0000e+00 0.0000e+00 0.0000e+00 0.0000e+00 0.0000e+00 0.0000e+00 0.0000e+00 0.0000e+00 0.0000e+00 0.0000e+00 0.0000e+00 0.0000e+00 0.0000e+00 0.0000e+00 0.0000e+00 0.0000e+00 0.0000e+00 0.0000e+00 0.0000e+00 0.0000e+00 0.0000e+00 0.0000e+00 0.0000e+00 0.0000e+00 0.0000e+00 0.0000e+00 0.0000e+00 0.0000e+00 
0.0000e+00 0.0000e+00 0.0000e+00 0.0000e+00 0.0000e+00 0.0000e+00 0.0000e+00 0.0000e+00 0.0000e+00 0.0000e+00 0.0000e+00 0.0000e+00 0.0000e+00 0.0000e+00 0.0000e+00 0.0000e+00 0.0000e+00 0.0000e+00 0.0000e+00 0.0000e+00 0.0000e+00 0.0000e+00 0.0000e+00 0.0000e+00 0.0000e+00 0.0000e+00 0.0000e+00 0.0000e+00 0.0000e+00 0.0000e+00 
3.2678e-03 1.2900e-06 -1.1276e-05 -4.9109e-04 -2.2459e-05 1.9398e-06 3.2877e-03 -3.3923e-05 1.1389e-05 -4.1640e-04 -3.4200e-06 2.5819e-05 3.3171e-03 5.4627e-05 2.0529e-05 -4.5585e-04 6.9325e-05 1.6220e-05 3.2933e-03 3.4327e-05 -8.5183e-06 -4.1632e-04 4.9291e-05 -2.5528e-05 3.2574e-03 -1.3171e-05 -2.0514e-05 -4.2356e-04 -8.9558e-06 -2.8222e-05 
5.1408e-03 -7.8482e-05 -2.0081e-05 1.0985e-03 1.8589e-04 6.7450e-06 5.1804e-03 1.9020e-05 2.8491e-05 1.3637e-03 1.6593e-05 4.7758e-05 5.2293e-03 -1.1561e-05 3.6704e-05 1.3740e-03 1.9830e-05 3.6441e-05 5.2040e-03 -8.2266e-06 -1.8292e-05 1.4273e-03 -3.0188e-05 -4.9701e-05 5.2194e-03 -4.9168e-05 -4.4637e-05 1.1703e-03 -2.9499e-04 -5.3092e-05 
6.3409e-03 -4.2101e-05 -1.7397e-05 2.0154e-03 -7.4658e-06 9.6203e-06 6.3366e-03 1.1629e-06 3.1178e-05 2.1636e-03 -2.3107e-04 4.3579e-05 6.3717e-03 7.0399e-05 4.0621e-05 2.1455e-03 3.0288e-04 -2.6374e-05 6.3768e-03 1.2469e-05 -2.5943e-05 2.5524e-03 3.6575e-05 -1.3320e-05 6.3847e-03 4.9645e-05 -5.4436e-05 2.0152e-03 9.4578e-06 -4.4746e-05 
6.8503e-03 1.9906e-05 -1.0183e-05 2.8311e-03 -1.7945e-04 1.5570e-05 6.7984e-03 2.2938e-05 3.0196e-05 2.5242e-03 -1.4227e-05 3.5113e-05 6.8741e-03 1.6450e-06 2.8566e-05 2.3968e-03 -1.1563e-04 3.9118e-06 6.8409e-03 -7.6185e-05 -2.5666e-05 3.0060e-03 -7.1565e-05 -3.4952e-05 6.8680e-03 -4.7441e-05 -4.0680e-05 2.7164e-03 2.9172e-04 -3.3413e-05 
6.6237e-03 4.1537e-05 -2.0106e-06 3.1364e-03 4.2989e-05 1.8905e-05 6.6914e-03 1.0485e-04 2.7993e-05 2.8799e-03 3.0952e-04 2.0649e-05 6.7252e-03 -7.6172e-07 9.8261e-06 2.6126e-03 -3.1760e-04 -8.9341e-06 6.6936e-03 7.5702e-06 -2.1785e-05 2.5846e-03 4.4894e-05 -3.0050e-05 6.6017e-03 -2.9324e-05 -2.8477e-05 2.8816e-03 2.8883e-05 -1.9432e-05 
5.7530e-03 -3.6578e-05 6.0113e-06 2.6431e-03 -1.1258e-05 1.9611e-05 6.0867e-03 -5.1704e-06 2.2527e-05 2.6535e-03 -2.1582e-05 1.0514e-05 6.0933e-03 5.6446e-05 -9.1089e-06 -2.7974e-04 5.4410e-05 -1.8760e-05 5.9713e-03 -3.8365e-05 -2.5311e-05 2.1233e-03 -4.9933e-05 -2.4970e-05 5.6900e-03 -1.5523e-05 -1.9329e-05 2.3323e-03 -1.2473e-04 -9.8580e-06 
4.9073e-03 -2.2593e-05 7.0964e-06 1.5234e-03 3.0615e-05 1.7452e-05 4.9446e-03 3.2998e-06 2.0019e-05 1.5413e-03 3.9586e-05 9.5389e-06 5.0206e-03 4.5856e-05 -6.9027e-06 1.3744e-03 1.4887e-04 -1.9632e-05 4.7190e-03 1.3593e-04 -2.4035e-05 1.4372e-03 -1.9012e-06 -2.0932e-05 4.8051e-03 -5.8293e-05 -1.4696e-05 1.3715e-03 -1.3047e-04 -7.1506e-06 
3.1771e-03 -7.7106e-05 6.6496e-06 -3.3036e-04 -1.2746e-04 1.0010e-05 3.1608e-03 -7.6429e-05 8.4587e-06 -3.3098e-04 1.3386e-05 3.7967e-06 3.1819e-03 2.8092e-05 -6.5793e-06 -3.1761e-04 -1.1509e-04 -1.4044e-05 3.1166e-03 6.6228e-05 -1.3057e-05 -2.9047e-04 1.1571e-04 -1.0945e-05 3.1014e-03 -6.1569e-05 -8.9967e-06 -3.4433e-04 -6.6939e-05 -2.3981e-06 
0.0000e+00 0.0000e+00 0.0000e+00 0.0000e+00 0.0000e+00 0.0000e+00 0.0000e+00 0.0000e+00 0.0000e+00 0.0000e+00 0.0000e+00 0.0000e+00 0.0000e+00 0.0000e+00 0.0000e+00 0.0000e+00 0.0000e+00 0.0000e+00 0.0000e+00 0.0000e+00 0.0000e+00 0.0000e+00 0.0000e+00 0.0000e+00 0.0000e+00 0.0000e+00 0.0000e+00 0.0000e+00 0.0000e+00 0.0000e+00 
0.0000e+00 0.0000e+00 0.0000e+00 0.0000e+00 0.0000e+00 0.0000e+00 0.0000e+00 0.0000e+00 0.0000e+00 0.0000e+00 0.0000e+00 0.0000e+00 0.0000e+00 0.0000e+00 0.0000e+00 0.0000e+00 0.0000e+00 0.0000e+00 0.0000e+00 0.0000e+00 0.0000e+00 0.0000e+00 0.0000e+00 0.0000e+00 0.0000e+00 0.0000e+00 0.0000e+00 0.0000e+00 0.0000e+00 0.0000e+00 
3.1397e-03 -1.0985e-05 -1.8938e-05 -5.3218e-04 7.3761e-06 1.2590e-05 3.1488e-03 -7.7180e-06 4.4877e-05 -5.0644e-04 3.2239e-05 2.5954e-05 3.1514e-03 2.0390e-05 -2.6239e-06 -4.9264e-04 4.3621e-05 -3.3276e-06 3.1368e-03 3.4580e-05 1.4605e-06 -4.6319e-04 4.1278e-05 -2.3469e-05 3.1687e-03 1.3046e-05 -1.8745e-05 -4.9385e-04 -7.8846e-06 -7.0885e-06 
4.8459e-03 -5.8763e-05 -2.3688e-05 1.0962e-03 -4.6791e-05 2.0843e-05 4.8429e-03 -3.2224e-05 3.7305e-05 1.1146e-03 -7.9999e-06 4.6491e-05 4.8589e-03 -4.6634e-06 2.1842e-05 1.1353e-03 -2.5240e-05 1.2634e-05 4.8659e-03 1.5849e-05 1.5765e-06 1.1510e-03 3.5143e-05 -3.1539e-05 4.8897e-03 -4.3688e-05 -3.6926e-05 1.1585e-03 -5.8007e-05 -4.7080e-05 
5.8786e-03 -1.9914e-05 3.0687e-06 1.8447e-03 -1.2305e-06 -2.0968e-04 5.8597e-03 9.8154e-06 1.8232e-05 2.0834e-03 2.5511e-05 3.6671e-05 5.8766e-03 5.0206e-05 3.6065e-05 2.0821e-03 5.6063e-05 -3.3567e-06 5.9051e-03 1.7554e-05 1.7374e-05 2.0886e-03 2.7264e-05 -3.5040e-05 5.9183e-03 2.2712e-05 -7.1110e-05 1.9220e-03 -2.0697e-05 2.0787e-04 
6.3462e-03 -3.3896e-05 2.3016e-06 2.5959e-03 1.5436e-05 -3.5189e-06 6.3061e-03 -1.3072e-05 4.1313e-05 2.3247e-03 -2.4443e-05 3.0295e-04 6.3254e-03 -2.3460e-05 2.4358e-05 2.2683e-03 -1.0389e-05 -2.4840e-04 6.3485e-03 -7.2254e-05 3.0047e-05 2.5409e-03 -8.6203e-05 -1.8291e-05 6.3650e-03 1.5860e-05 -8.4195e-05 2.5676e-03 -1.6109e-05 -4.0216e-05 
6.2128e-03 3.7948e-05 -2.3745e-05 2.6515e-03 5.6515e-05 -1.0629e-05 6.2083e-03 6.4778e-05 1.4843e-05 2.6452e-03 2.8206e-05 2.8917e-05 6.2682e-03 2.8774e-05 2.7980e-05 2.4746e-03 -1.2965e-05 1.0665e-04 6.2296e-03 -1.6662e-05 1.1120e-05 2.4680e-03 3.3131e-06 -3.8414e-05 6.2082e-03 -1.1541e-05 -2.5536e-05 2.4755e-03 1.2117e-05 -1.0286e-04 
5.6075e-03 -3.1914e-05 -3.5700e-05 2.1990e-03 -2.3408e-05 8.0258e-06 5.6579e-03 -8.0981e-06 -1.8474e-05 2.2092e-03 -3.6150e-06 4.0230e-05 5.7172e-03 -2.4707e-05 5.9751e-05 2.0312e-03 -1.1522e-05 9.1518e-05 5.6192e-03 -5.4788e-06 2.6641e-05 2.0176e-03 -2.8488e-05 -5.6321e-05 5.5641e-03 -6.5421e-05 -3.5668e-05 2.0386e-03 -7.9618e-05 -9.5306e-05 
4.6962e-03 -1.6038e-05 -2.2491e-05 1.2296e-03 1.4961e-06 -2.7918e-05 4.7264e-03 2.4067e-05 4.9247e-06 1.2374e-03 4.5461e-05 5.9517e-05 4.7151e-03 4.4604e-05 5.8890e-05 1.1895e-03 6.0716e-05 3.1297e-06 4.6728e-03 9.8108e-05 5.2202e-05 1.1773e-03 1.8856e-05 -6.2527e-06 4.6276e-03 -5.6443e-05 -8.6550e-05 1.1974e-03 -4.0480e-05 -2.2976e-05 
3.1037e-03 -2.3542e-05 -7.7109e-06 -4.3007e-04 -4.0812e-05 -1.6161e-05 3.0990e-03 -1.6082e-05 1.4613e-05 -4.2928e-04 -2.5308e-05 2.8884e-05 3.0941e-03 7.1014e-06 4.1682e-05 -4.1418e-04 7.2565e-06 1.3893e-05 3.0794e-03 1.5990e-06 8.1327e-06 -4.3246e-04 -4.3649e-05 -1.4422e-05 3.0654e-03 -6.9294e-05 -4.5366e-05 -4.1116e-04 -3.9786e-05 -1.7327e-06 
0.0000e+00 0.0000e+00 0.0000e+00 0.0000e+00 0.0000e+00 0.0000e+00 0.0000e+00 0.0000e+00 0.0000e+00 0.0000e+00 0.0000e+00 0.0000e+00 0.0000e+00 0.0000e+00 0.0000e+00 0.0000e+00 0.0000e+00 0.0000e+00 0.0000e+00 0.0000e+00 0.0000e+00 0.0000e+00 0.0000e+00 0.0000e+00 0.0000e+00 0.0000e+00 0.0000e+00 0.0000e+00 0.0000e+00 0.0000e+00 
0.0000e+00 0.0000e+00 0.0000e+00 0.0000e+00 0.0000e+00 0.0000e+00 0.0000e+00 0.0000e+00 0.0000e+00 0.0000e+00 0.0000e+00 0.0000e+00 0.0000e+00 0.0000e+00 0.0000e+00 0.0000e+00 0.0000e+00 0.0000e+00 0.0000e+00 0.0000e+00 0.0000e+00 0.0000e+00 0.0000e+00 0.0000e+00 0.0000e+00 0.0000e+00 0.0000e+00 0.0000e+00 0.0000e+00 0.0000e+00 
2.8819e-03 -7.3404e-06 -9.1172e-06 -7.3311e-04 1.8618e-05 2.6141e-06 2.8678e-03 1.2137e-05 4.0094e-06 -7.3034e-04 3.2727e-05 5.4870e-06 2.8662e-03 6.3057e-06 1.4056e-05 -7.0111e-04 5.6043e-05 1.9893e-05 2.8564e-03 2.9038e-05 3.4243e-06 -6.7942e-04 1.3477e-05 -1.2029e-05 2.9083e-03 2.4958e-05 -2.6197e-05 -6.9685e-04 5.1257e-06 -2.8828e-05 
4.1829e-03 -4.3738e-05 -7.6040e-06 5.0910e-04 -4.6373e-05 8.2179e-06 4.1347e-03 -4.6584e-05 2.1289e-05 5.0787e-04 -2.4436e-05 1.4612e-05 4.1514e-03 -1.2724e-05 1.7690e-05 5.6295e-04 -1.3654e-05 1.7162e-05 4.1464e-03 1.3871e-05 -2.9235e-05 5.9290e-04 -4.9615e-06 -2.7715e-05 4.2100e-03 -3.4755e-05 -3.0223e-05 5.7290e-04 -4.2089e-05 -3.3491e-05 
4.9043e-03 -8.8817e-06 -9.0941e-06 1.2063e-03 1.3329e-06 1.9501e-05 4.8665e-03 1.0863e-05 3.3696e-05 1.2215e-03 2.1997e-05 1.1724e-05 4.8742e-03 3.0097e-05 5.6129e-06 1.2372e-03 3.0312e-05 9.7419e-06 4.9000e-03 3.8649e-05 -5.8958e-05 1.2130e-03 2.9741e-05 -8.8372e-05 4.9319e-03 -1.4224e-06 -2.9213e-05 1.2798e-03 -2.9142e-06 -2.6611e-05 
5.2319e-03 -3.9687e-05 -4.2238e-07 1.5664e-03 -2.4719e-05 9.2674e-06 5.1913e-03 -1.3073e-05 2.1622e-05 1.5566e-03 -2.9120e-05 1.4329e-05 5.2043e-03 -2.9193e-05 2.9967e-06 1.5836e-03 -7.2161e-06 -1.3495e-05 5.2173e-03 -6.8809e-05 -1.4852e-05 1.5809e-03 -2.2577e-05 -3.3626e-05 5.2459e-03 -9.5472e-07 -6.2372e-05 1.6031e-03 -4.3097e-05 -2.2802e-05 
5.2190e-03 1.5511e-05 -7.8418e-06 1.5978e-03 4.8610e-05 -2.8837e-05 5.1660e-03 2.6431e-05 1.8551e-05 1.5826e-03 2.4219e-05 2.3787e-05 5.1938e-03 2.5783e-05 1.1612e-05 1.5416e-03 2.8506e-05 3.2246e-05 5.1824e-03 -1.8401e-06 4.8027e-05 1.6083e-03 -1.1170e-05 -1.3789e-05 5.2093e-03 2.3497e-05 -1.1279e-04 1.5599e-03 -3.8006e-06 -7.0221e-05 
4.8432e-03 -2.6844e-05 -5.5932e-05 1.2775e-03 -1.9435e-05 -4.9299e-05 4.7715e-03 -8.0142e-06 -1.7308e-05 1.2736e-03 -3.0439e-06 2.9131e-05 4.8458e-03 -1.2955e-05 1.8163e-05 1.2436e-03 -4.7789e-05 4.2544e-05 4.7943e-03 7.3407e-07 7.8545e-05 1.2754e-03 -2.6887e-05 -7.0285e-06 4.8187e-03 -8.0209e-05 -5.7494e-05 1.2678e-03 -4.0882e-05 -5.8254e-05 
4.1461e-03 7.3253e-06 4.3542e-06 5.9197e-04 7.5521e-07 2.8754e-06 4.1149e-03 4.5981e-05 3.4536e-05 5.8233e-04 4.6085e-05 1.5988e-05 4.0900e-03 4.1425e-05 4.0776e-05 5.9600e-04 2.0677e-05 1.9220e-05 4.1303e-03 3.1456e-05 -1.3748e-05 5.7080e-04 1.4521e-05 -4.9309e-05 4.1043e-03 -3.0555e-05 -7.1226e-05 6.1550e-04 -3.0583e-08 -7.7493e-06 
2.8594e-03 -1.1089e-05 8.1702e-06 -6.6261e-04 -1.0597e-05 2.7305e-05 2.8390e-03 -6.5219e-06 2.3303e-05 -6.6850e-04 -2.8431e-05 1.1819e-05 2.8596e-03 -9.4255e-06 -4.4818e-07 -6.6564e-04 -3.5557e-06 5.0469e-06 2.8436e-03 -2.7417e-05 -2.0512e-05 -6.8021e-04 -6.1011e-05 -4.2886e-05 2.8499e-03 -2.8368e-05 -1.5657e-05 -6.5793e-04 -3.8596e-05 -5.3047e-06 
0.0000e+00 0.0000e+00 0.0000e+00 0.0000e+00 0.0000e+00 0.0000e+00 0.0000e+00 0.0000e+00 0.0000e+00 0.0000e+00 0.0000e+00 0.0000e+00 0.0000e+00 0.0000e+00 0.0000e+00 0.0000e+00 0.0000e+00 0.0000e+00 0.0000e+00 0.0000e+00 0.0000e+00 0.0000e+00 0.0000e+00 0.0000e+00 0.0000e+00 0.0000e+00 0.0000e+00 0.0000e+00 0.0000e+00 0.0000e+00 
0.0000e+00 0.0000e+00 0.0000e+00 0.0000e+00 0.0000e+00 0.0000e+00 0.0000e+00 0.0000e+00 0.0000e+00 0.0000e+00 0.0000e+00 0.0000e+00 0.0000e+00 0.0000e+00 0.0000e+00 0.0000e+00 0.0000e+00 0.0000e+00 0.0000e+00 0.0000e+00 0.0000e+00 0.0000e+00 0.0000e+00 0.0000e+00 0.0000e+00 0.0000e+00 0.0000e+00 0.0000e+00 0.0000e+00 0.0000e+00 
2.3528e-03 9.3825e-06 7.3234e-06 -1.2337e-03 1.0076e-05 1.0667e-05 2.3353e-03 1.2461e-05 1.6359e-05 -1.2238e-03 2.6156e-05 -5.3812e-07 2.3353e-03 2.1085e-05 -5.5790e-06 -1.2137e-03 3.6023e-05 -2.0756e-05 2.3209e-03 2.5297e-05 1.3709e-06 -1.1979e-03 2.3447e-05 1.1056e-05 2.3608e-03 2.5736e-05 6.6425e-06 -1.1954e-03 1.8046e-05 6.1208e-06 
2.8987e-03 -3.8004e-05 1.5325e-05 -7.0829e-04 -3.4064e-05 1.6790e-06 2.8672e-03 -2.8706e-05 1.3764e-05 -7.0745e-04 -2.7179e-05 -6.2587e-07 2.8681e-03 -2.2598e-05 1.8618e-05 -6.8118e-04 -2.2990e-05 -3.9437e-05 2.8663e-03 -1.4790e-05 9.2578e-07 -6.5883e-04 -1.3310e-05 1.8516e-05 2.9068e-03 -2.5178e-05 -2.2073e-06 -6.6542e-04 -3.2628e-05 5.5949e-06 
3.1840e-03 7.3530e-06 1.0384e-05 -4.3743e-04 7.8117e-06 -2.8459e-06 3.1519e-03 1.2055e-05 1.3515e-05 -4.4424e-04 1.6564e-05 -2.3353e-06 3.1578e-03 2.3399e-05 1.9004e-05 -4.2483e-04 2.9941e-05 -4.3085e-07 3.1582e-03 3.4694e-05 -2.9493e-06 -4.1835e-04 2.7506e-05 -1.3309e-05 3.1847e-03 7.4013e-06 1.2414e-05 -4.0470e-04 6.3925e-06 4.4737e-06 
3.3016e-03 -3.0110e-05 2.1743e-05 -3.1607e-04 -2.9180e-05 -1.1786e-06 3.2746e-03 -2.8973e-05 1.2011e-05 -3.1617e-04 -2.5560e-05 1.3845e-06 3.2866e-03 -2.5648e-05 1.5756e-05 -3.0776e-04 -1.8787e-05 -6.4687e-07 3.2818e-03 -1.5255e-05 -3.5503e-06 -3.1745e-04 -2.3135e-05 -1.8180e-05 3.3012e-03 -2.5651e-05 1.0358e-05 -2.8509e-04 -2.8569e-05 -6.4139e-07 
3.2894e-03 9.9246e-06 2.4058e-05 -3.0008e-04 2.0690e-05 5.6267e-06 3.2674e-03 2.4941e-05 1.3653e-05 -3.0336e-04 2.2756e-05 7.4428e-06 3.2779e-03 2.4814e-05 1.4356e-05 -2.9756e-04 2.3127e-05 -1.1111e-05 3.2733e-03 2.2017e-05 5.7776e-06 -3.0924e-04 2.1609e-05 -1.8015e-05 3.2883e-03 1.6613e-05 -7.9081e-06 -2.8241e-04 9.7200e-06 -7.8465e-06 
3.1636e-03 -2.4677e-05 1.3924e-05 -4.0289e-04 -1.2925e-05 8.8470e-06 3.1285e-03 -1.2355e-05 2.6323e-05 -4.1243e-04 -1.9321e-05 1.1481e-05 3.1506e-03 -1.9150e-05 1.6282e-05 -4.0493e-04 -1.9447e-05 -8.1398e-06 3.1424e-03 -2.6379e-05 -6.9947e-06 -4.1890e-04 -3.3625e-05 -2.6883e-05 3.1455e-03 -3.3426e-05 -9.4890e-06 -3.9449e-04 -3.3062e-05 -1.0416e-05 