<?xml version="1.0"?>
<!-- openLBMflow v1.0.1, www.lbmflow.com -->
<VTKFile type="ImageData" version="0.1" byte_order="LittleEndian">
  <ImageData WholeExtent="0 9 0 9 0 9" Origin="0 0 0" Spacing="1 1 1">
  <Piece Extent="0 9 0 9 0 9">
    <PointData Scalars="scalars">
      <DataArray type="Float32" Name="Velocity" NumberOfComponents="3" format="ascii">
0.0000e+00 0.0000e+00 0.0000e+00 0.0000e+00 0.0000e+00 0.0000e+00 0.0000e+00 0.0000e+00 0.0000e+00 0.0000e+00 0.0000e+00 0.0000e+00 0.0000e+00 0.0000e+00 0.0000e+00 0.0000e+00 0.0000e+00 0.0000e+00 0.0000e+00 0.0000e+00 0.0000e+00 0.0000e+00 0.0000e+00 0.0000e+00 0.0000e+00 0.0000e+00 0.0000e+00 0.0000e+00 0.0000e+00 0.0000e+00 
0.0000e+00 0.0000e+00 0.0000e+00 0.0000e+00 0.0000e+00 0.0000e+00 0.0000e+00 0.0000e+00 0.0000e+00 0.0000e+00 0.0000e+00 0.0000e+00 0.0000e+00 0.0000e+00 0.0000e+00 0.0000e+00 0.0000e+00 0.0000e+00 0.0000e+00 0.0000e+00 0.0000e+00 0.0000e+00 0.0000e+00 0.0000e+00 0.0000e+00 0.0000e+00 0.0000e+00 0.0000e+00 0.0000e+00 0.0000e+00 
0.0000e+00 0.0000e+00 0.0000e+00 0.0000e+00 0.0000e+00 0.0000e+00 0.0000e+00 0.0000e+00 0.0000e+00 0.0000e+00 0.0000e+00 0.0000e+00 0.0000e+00 0.0000e+00 0.0000e+00 0.0000e+00 0.0000e+00 0.0000e+00 0.0000e+00 0.0000e+00 0.0000e+00 0.0000e+00 0.0000e+00 0.0000e+00 0.0000e+00 0.0000e+00 0.0000e+00 0.0000e+00 0.0000e+00 0.0000e+00 
0.0000e+00 0.0000e+00 0.0000e+00 0.0000e+00 0.0000e+00 0.0000e+00 0.0000e+00 0.0000e+00 0.0000e+00 0.0000e+00 0.0000e+00 0.0000e+00 0.0000e+00 0.0000e+00 0.0000e+00 0.0000e+00 0.0000e+00 0.0000e+00 0.0000e+00 0.0000e+00 0.0000e+00 0.0000e+00 0.0000e+00 0.0000e+00 0.0000e+00 0.0000e+00 0.0000e+00 0.0000e+00 0.0000e+00 0.0000e+00 
0.0000e+00 0.0000e+00 0.0000e+00 0.0000e+00 0.0000e+00 0.0000e+00 0.0000e+00 0.0000e+00 0.0000e+00 0.0000e+00 0.0000e+00 0.0000e+00 0.0000e+00 0.0000e+00 0.0000e+00 0.0000e+00 0.0000e+00 0.0000e+00 0.0000e+00 0.0000e+00 0.0000e+00 0.0000e+00 0.0000e+00 0.0000e+00 0.0000e+00 0.0000e+00 0.0000e+00 0.0000e+00 0.0000e+00 0.0000e+00 
0.0000e+00 0.0000e+00 0.0000e+00 0.0000e+00 0.0000e+00 0.0000e+00 0.0000e+00 0.0000e+00 0.0000e+00 0.0000e+00 0.0000e+00 0.0000e+00 0.0000e+00 0.0000e+00 0.0000e+00 0.0000e+00 0.0000e+00 0.0000e+00 0.0000e+00 0.0000e+00 0.0000e+00 0.0000e+00 0.0000e+00 0.0000e+00 0.0000e+00 0.0000e+00 0.0000e+00 0.0000e+00 0.0000e+00 0.0000e+00 
0.0000e+00 0.0000e+00 0.0000e+00 0.0000e+00 0.0000e+00 0.0000e+00 0.0000e+00 0.0000e+00 0.0000e+00 0.0000e+00 0.0000e+00 0.0000e+00 0.0000e+00 0.0000e+00 0.0000e+00 0.0000e+00 0.0000e+00 0.0000e+00 0.0000e+00 0.0000e+00 0.0000e+00 0.0000e+00 0.0000e+00 0.0000e+00 0.0000e+00 0.0000e+00 0.0000e+00 0.0000e+00 0.0000e+00 0.0000e+00 
0.0000e+00 0.0000e+00 0.0000e+00 0.0000e+00 0.0000e+00 0.0000e+00 0.0000e+00 0.0000e+00 0.0000e+00 0.0000e+00 0.0000e+00 0.0000e+00 0.0000e+00 0.0000e+00 0.0000e+00 0.0000e+00 0.0000e+00 0.0000e+00 0.0000e+00 0.0000e+00 0.0000e+00 0.0000e+00 0.0000e+00 0.0000e+00 0.0000e+00 0.0000e+00 0.0000e+00 0.0000e+00 0.0000e+00 0.0000e+00 
0.0000e+00 0.0000e+00 0.0000e+00 0.0000e+00 0.0000e+00 0.0000e+00 0.0000e+00 0.0000e+00 0.0000e+00 0.0000e+00 0.0000e+00 0.0000e+00 0.0000e+00 0.0000e+00 0.0000e+00 0.0000e+00 0.0000e+00 0.0000e+00 0.0000e+00 0.0000e+00 0.0000e+00 0.0000e+00 0.0000e+00 0.0000e+00 0.0000e+00 0.0000e+00 0.0000e+00 0.0000e+00 0.0000e+00 0.0000e+00 
0.0000e+00 0.0000e+00 0.0000e+00 0.0000e+00 0.0000e+00 0.0000e+00 0.0000e+00 0.0000e+00 0.0000e+00 0.0000e+00 0.0000e+00 0.0000e+00 0.0000e+00 0.0000e+00 0.0000e+00 0.0000e+00 0.0000e+00 0.0000e+00 0.0000e+00 0.0000e+00 0.0000e+00 0.0000e+00 0.0000e+00 0.0000e+00 0.0000e+00 0.0000e+00 0.0000e+00 0.0000e+00 0.0000e+00 0.0000e+00 
0.0000e+00 0.0000e+00 0.0000e+00 0.0000e+00 0.0000e+00 0.0000e+00 0.0000e+00 0.0000e+00 0.0000e+00 0.0000e+00 0.0000e+00 0.0000e+00 0.0000e+00 0.0000e+00 0.0000e+00 0.0000e+00 0.0000e+00 0.0000e+00 0.0000e+00 0.0000e+00 0.0000e+00 0.0000e+00 0.0000e+00 0.0000e+00 0.0000e+00 0.0000e+00 0.0000e+00 0.0000e+00 0.0000e+00 0.0000e+00 
2.3097e-03 -1.6904e-05 -3.0878e-05 -1.0154e-03 8.5857e-05 4.4332e-05 3.1149e-03 9.1137e-05 1.3031e-05 -1.3271e-03 -2.7697e-04 -6.4687e-06 2.6808e-03 1.7467e-05 -1.1909e-06 -1.3684e-03 -2.3678e-05 8.3544e-06 2.6459e-03 1.0788e-04 5.8814e-06 -1.4329e-03 5.0025e-05 2.4236e-05 2.5955e-03 -2.7671e-05 -6.7090e-06 -1.1794e-03 1.6161e-04 -2.0817e-05 
2.9760e-03 -5.6215e-05 -1.2968e-05 -2.0665e-04 1.7914e-05 7.4335e-06 2.7743e-03 -6.1869e-05 5.0128e-05 -3.5098e-04 6.0203e-05 -8.3276e-06 3.1315e-03 -3.4763e-06 -6.3043e-05 -6.1505e-04 4.8163e-05 -2.3248e-05 3.0920e-03 -5.7508e-05 -2.1024e-05 -6.8160e-04 -6.4979e-05 -1.4031e-05 3.1515e-03 5.5981e-05 4.1836e-05 -5.5677e-04 -1.7747e-04 6.1332e-05 
3.5092e-03 5.6480e-05 -2.1022e-05 -3.0250e-04 -1.0645e-04 2.3840e-05 3.4422e-03 -5.2524e-05 -3.0170e-05 -1.9674e-04 2.0110e-04 7.1393e-05 3.2899e-03 7.7651e-06 -8.1805e-05 -1.2585e-04 6.2484e-05 1.7673e-05 3.1216e-03 3.1932e-05 -7.2980e-05 -1.4814e-07 2.6590e-05 -2.5510e-05 3.2582e-03 3.9844e-05 1.2161e-04 -2.9576e-04 -9.8737e-05 -6.0833e-05 
3.6137e-03 -1.1568e-04 -2.0033e-05 -3.6587e-04 -5.7180e-05 3.9578e-05 3.5116e-03 9.1524e-06 -5.7987e-05 -1.8295e-04 -2.2528e-05 5.8473e-05 3.4245e-03 6.0119e-05 -4.8848e-05 -1.2070e-05 -4.1889e-05 1.3715e-05 3.2623e-03 -7.1052e-06 -2.5971e-05 -4.4502e-05 -8.3741e-05 -1.0950e-07 3.4093e-03 -1.5202e-04 8.5980e-05 -2.1770e-04 -1.8546e-06 -8.8708e-05 
3.5274e-03 7.1500e-05 -8.2689e-06 -2.8872e-04 6.5026e-05 3.3262e-05 3.4159e-03 7.6556e-05 -4.3036e-05 -1.8025e-04 1.0088e-06 2.7138e-05 3.5228e-03 9.0667e-05 -2.3473e-06 -1.9347e-04 -3.2199e-05 -4.1298e-05 3.4510e-03 -1.3215e-06 1.2116e-05 -2.8491e-04 3.2431e-05 4.6665e-05 3.5739e-03 -5.9660e-05 2.0417e-05 -2.5248e-04 -4.6672e-05 -3.6215e-05 
3.3600e-03 -3.9619e-05 -3.5906e-05 2.0267e-03 -1.1025e-04 -2.3742e-05 3.3233e-03 -2.2899e-05 -2.4559e-05 -3.7396e-04 1.6901e-05 4.4678e-05 3.4750e-03 -2.8798e-05 5.3975e-06 -4.9183e-04 -8.1176e-05 -1.2287e-04 3.7417e-03 5.7314e-05 1.4818e-05 2.6033e-03 -1.6640e-04 -3.3464e-05 3.5911e-03 -1.9164e-04 -2.2459e-05 -3.7503e-04 -4.6744e-05 2.5049e-06 
3.0285e-03 3.8803e-05 -3.6526e-06 -6.7567e-04 -1.8086e-05 -5.6481e-05 3.1789e-03 3.9757e-05 -2.6739e-05 -6.9448e-04 3.3593e-05 6.6607e-05 3.1789e-03 1.4627e-05 5.1662e-06 -7.3269e-04 1.5366e-04 -1.1385e-04 3.5123e-03 -1.4973e-05 -8.2628e-06 -9.7193e-04 -6.8375e-05 1.4072e-05 3.3123e-03 7.5836e-05 -1.6488e-05 -5.9121e-04 8.7731e-05 2.3165e-05 
2.1718e-03 -7.1143e-05 -1.8321e-06 -1.1274e-03 6.7166e-05 -1.0457e-05 2.3987e-03 -1.8256e-05 -6.6960e-06 -1.2328e-03 -1.7636e-04 -7.6561e-06 2.5425e-03 -8.9681e-05 -1.0357e-06 -1.1382e-03 6.3828e-05 4.1441e-07 2.2833e-03 -1.0832e-04 2.1329e-05 -1.1302e-03 -1.6594e-04 1.7152e-05 2.5342e-03 1.1972e-04 1.6143e-05 -1.0818e-03 -5.4893e-05 3.2744e-06 
0.0000e+00 0.0000e+00 0.0000e+00 0.0000e+00 0.0000e+00 0.0000e+00 0.0000e+00 0.0000e+00 0.0000e+00 0.0000e+00 0.0000e+00 0.0000e+00 0.0000e+00 0.0000e+00 0.0000e+00 0.0000e+00 0.0000e+00 0.0000e+00 0.0000e+00 0.0000e+00 0.0000e+00 0.0000e+00 0.0000e+00 0.0000e+00 0.0000e+00 0.0000e+00 0.0000e+00 0.0000e+00 0.0000e+00 0.0000e+00 
0.0000e+00 0.0000e+00 0.0000e+00 0.0000e+00 0.0000e+00 0.0000e+00 0.0000e+00 0.0000e+00 0.0000e+00 0.0000e+00 0.0000e+00 0.0000e+00 0.0000e+00 0.0000e+00 0.0000e+00 0.0000e+00 0.0000e+00 0.0000e+00 0.0000e+00 0.0000e+00 0.0000e+00 0.0000e+00 0.0000e+00 0.0000e+00 0.0000e+00 0.0000e+00 0.0000e+00 0.0000e+00 0.0000e+00 0.0000e+00 
3.0837e-03 7.2295e-06 -1.2115e-05 -6.9940e-04 5.0698e-05 3.0678e-05 3.1216e-03 1.8960e-06 -2.7347e-05 -7.5256e-04 -2.7719e-05 3.4729e-05 3.1588e-03 2.8303e-05 2.4558e-05 -8.3526e-04 5.2746e-05 -5.4769e-06 3.1544e-03 6.8824e-05 -3.2191e-05 -8.3258e-04 2.9745e-05 -1.7503e-05 3.1442e-03 -1.5034e-05 4.0257e-05 -7.4100e-04 6.6123e-05 -6.6452e-05 
4.5033e-03 -2.4368e-05 5.8590e-06 8.4075e-04 -3.7599e-05 -1.0543e-04 4.4453e-03 -7.6750e-05 -5.3944e-06 8.1080e-04 -1.1007e-05 1.7138e-04 4.4636e-03 -5.1360e-05 -1.1091e-05 6.3751e-04 2.2344e-05 -2.4396e-05 4.4744e-03 8.4948e-06 -4.6744e-05 6.0529e-04 -2.2290e-05 2.2101e-05 4.5335e-03 -3.1275e-05 2.2689e-05 6.9925e-04 -7.3099e-05 -7.6006e-05 
5.3372e-03 -5.1247e-06 -7.9137e-06 1.3926e-03 3.6195e-06 1.4652e-05 5.2942e-03 7.4800e-06 3.9044e-05 1.4518e-03 5.0617e-05 -4.5120e-05 5.1881e-03 4.5074e-05 2.9933e-05 1.5632e-03 6.3280e-05 -6.7327e-05 5.1276e-03 5.0598e-05 -1.2263e-06 1.5278e-03 3.1598e-05 2.6105e-05 5.1987e-03 9.8192e-06 -6.9117e-05 1.4952e-03 -3.6827e-05 6.6779e-05 
5.6044e-03 -1.1112e-04 1.6552e-05 1.7172e-03 -3.4488e-05 -1.0398e-05 5.5557e-03 2.2663e-05 4.3341e-05 1.8295e-03 -1.4757e-05 -3.3728e-05 5.4959e-03 1.6810e-05 1.1410e-05 1.9116e-03 -9.4069e-06 -4.8902e-05 5.4470e-03 -4.9460e-05 -1.4521e-05 1.8564e-03 -8.2415e-05 2.4570e-05 5.5128e-03 -6.0399e-05 -1.8462e-05 1.8105e-03 -3.3429e-05 8.6566e-05 
5.4946e-03 9.9723e-06 1.8286e-05 1.7491e-03 5.9391e-05 -2.7774e-05 5.4469e-03 6.8433e-05 5.4047e-06 1.8356e-03 3.9894e-05 -1.6210e-06 5.5002e-03 8.0115e-05 -3.4629e-05 1.8427e-03 7.6210e-05 -1.5463e-05 5.4709e-03 -3.3282e-06 -7.6851e-06 1.7894e-03 -3.9598e-05 4.7943e-05 5.5211e-03 -1.0397e-05 2.4847e-05 1.7751e-03 -1.3899e-06 1.8684e-05 
5.1244e-03 -3.9480e-05 -1.4793e-05 1.4324e-03 -8.3913e-06 -9.8835e-06 5.0961e-03 -3.0581e-06 -6.7469e-06 1.4859e-03 -2.4851e-05 -2.9195e-06 5.2413e-03 -1.7488e-05 -4.4118e-05 1.4494e-03 -2.4127e-05 3.6129e-05 5.1982e-03 -5.3954e-05 -2.4251e-06 1.3910e-03 -6.6863e-05 2.9898e-06 5.2148e-03 -7.1224e-05 7.2145e-05 1.4186e-03 -3.8385e-05 7.4578e-06 
4.3523e-03 3.3104e-05 -2.4392e-05 6.5800e-04 4.0872e-05 2.6966e-05 4.3542e-03 5.0226e-05 5.4811e-07 7.0676e-04 4.3943e-05 -4.1105e-05 4.4921e-03 2.7459e-05 -4.1473e-05 6.8644e-04 1.6221e-05 1.0558e-05 4.5359e-03 1.4177e-05 -9.8535e-05 6.4017e-04 3.7249e-05 -9.7992e-06 4.4935e-03 4.3498e-05 1.6258e-04 6.6459e-04 2.2318e-05 9.7002e-06 
2.9606e-03 -3.8955e-05 -1.2932e-05 -5.9026e-04 -6.3591e-05 3.3569e-05 2.9579e-03 -2.2649e-05 1.3751e-06 -6.2863e-04 -1.6891e-05 2.4128e-05 3.0264e-03 -3.4627e-05 -1.8325e-05 -5.7565e-04 -6.3289e-05 -1.1682e-04 2.9650e-03 -1.3215e-05 1.6390e-05 -6.0651e-04 -3.9645e-05 7.9246e-05 2.9618e-03 -1.6332e-05 2.2682e-05 -6.1696e-04 -4.8101e-05 -5.2791e-05 
0.0000e+00 0.0000e+00 0.0000e+00 0.0000e+00 0.0000e+00 0.0000e+00 0.0000e+00 0.0000e+00 0.0000e+00 0.0000e+00 0.0000e+00 0.0000e+00 0.0000e+00 0.0000e+00 0.0000e+00 0.0000e+00 0.0000e+00 0.0000e+00 0.0000e+00 0.0000e+00 0.0000e+00 0.0000e+00 0.0000e+00 0.0000e+00 0.0000e+00 0.0000e+00 0.0000e+00 0.0000e+00 0.0000e+00 0.0000e+00 
0.0000e+00 0.0000e+00 0.0000e+00 0.0000e+00 0.0000e+00 0.0000e+00 0.0000e+00 0.0000e+00 0.0000e+00 0.0000e+00 0.0000e+00 0.0000e+00 0.0000e+00 0.0000e+00 0.0000e+00 0.0000e+00 0.0000e+00 0.0000e+00 0.0000e+00 0.0000e+00 0.0000e+00 0.0000e+00 0.0000e+00 0.0000e+00 0.0000e+00 0.0000e+00 0.0000e+00 0.0000e+00 0.0000e+00 0.0000e+00 
3.3380e-03 2.1650e-05 5.5081e-06 -5.3844e-04 2.2224e-05 3.7583e-06 3.3377e-03 2.6201e-06 1.7839e-05 -5.7297e-04 2.7610e-05 4.7316e-06 3.3552e-03 5.8997e-05 -1.0496e-05 -6.3649e-04 4.4331e-05 -2.8106e-05 3.3915e-03 2.7262e-05 1.1016e-07 -6.4984e-04 5.1278e-05 1.4112e-06 3.3903e-03 -4.8691e-06 -1.7710e-05 -5.7607e-04 4.0122e-05 2.4468e-05 
5.0837e-03 -6.0264e-05 -1.6488e-05 1.2518e-03 -5.9028e-05 -3.2492e-05 5.1094e-03 -6.3714e-05 2.1393e-05 1.2483e-03 -5.6885e-05 4.8537e-05 5.1043e-03 -6.5551e-06 -2.6292e-06 9.6272e-04 1.8293e-05 -2.0838e-04 5.1047e-03 1.6158e-05 -5.2260e-05 9.7025e-04 -1.8571e-05 1.6427e-04 5.1317e-03 -5.2117e-05 1.7792e-05 1.2329e-03 -3.6898e-05 3.4727e-06 
6.1695e-03 -1.7729e-05 -5.2563e-05 2.3149e-03 9.0292e-06 -2.0845e-05 6.1592e-03 2.8473e-05 3.4449e-05 2.3297e-03 2.8017e-05 -2.5974e-06 6.1651e-03 6.9297e-05 -1.6903e-05 2.2799e-03 4.8040e-05 -7.6169e-05 6.1380e-03 6.6135e-05 -2.2318e-05 2.2181e-03 6.2753e-05 3.4165e-05 6.1471e-03 -1.1343e-05 2.0053e-05 2.3298e-03 -1.5034e-06 3.6905e-05 
6.5483e-03 -5.2286e-05 -2.3278e-05 2.8133e-03 -4.5131e-05 -1.1776e-05 6.5567e-03 -2.1844e-05 -1.6814e-05 2.8410e-03 6.9368e-06 -1.9762e-05 6.5225e-03 -7.1690e-06 -7.0151e-05 2.8330e-03 2.9590e-05 -3.8011e-05 6.5695e-03 -2.7694e-05 1.9144e-05 2.7803e-03 -7.0586e-05 8.1914e-05 6.5192e-03 -5.3640e-05 5.9498e-05 2.8232e-03 -8.8062e-05 -3.5692e-05 
6.4839e-03 -4.2875e-06 -5.2263e-05 2.8287e-03 5.1294e-05 -1.2784e-05 6.4768e-03 8.3436e-05 -2.6668e-06 2.8626e-03 6.9333e-05 -2.5682e-05 6.5145e-03 6.9647e-05 -4.5269e-06 2.8954e-03 1.0664e-04 -2.2233e-05 6.4899e-03 2.4780e-06 4.4153e-05 2.8428e-03 -6.6056e-05 7.1618e-05 6.4989e-03 3.2981e-06 -1.2037e-05 2.8424e-03 -1.0381e-05 -2.8505e-05 
5.9679e-03 -2.9517e-05 -5.4094e-05 2.3788e-03 1.1655e-05 -2.3256e-05 5.9659e-03 4.9745e-06 3.4065e-05 2.3764e-03 -3.5826e-05 2.3887e-05 6.0588e-03 -4.6626e-06 -4.3716e-05 2.4162e-03 -8.3272e-06 -1.4634e-05 5.9806e-03 -5.9062e-05 1.1686e-05 2.4039e-03 -7.8759e-05 4.8607e-05 6.0137e-03 -6.4134e-05 2.9021e-05 2.3143e-03 -5.2258e-05 -5.1912e-05 
4.9632e-03 5.5621e-05 -4.7249e-05 1.3453e-03 3.9363e-05 -3.2113e-05 4.9085e-03 2.9394e-05 -2.4428e-05 1.3880e-03 5.6968e-05 -2.5496e-05 5.0589e-03 3.5331e-05 -8.8119e-06 1.3985e-03 4.1041e-06 -5.6117e-06 4.9289e-03 4.2403e-05 3.8378e-05 1.3441e-03 3.9334e-05 4.8914e-05 4.9610e-03 8.2747e-06 2.9390e-05 1.3190e-03 2.0407e-05 7.6821e-06 
3.1809e-03 -1.4203e-05 6.9585e-06 -4.2813e-04 -5.8829e-05 -1.5195e-05 3.2105e-03 -3.2831e-05 -1.2790e-05 -4.0297e-04 5.4357e-06 -1.7874e-05 3.2230e-03 -1.5707e-05 -1.0202e-05 -3.8363e-04 -6.4229e-05 -6.8081e-06 3.2206e-03 -4.0025e-05 5.1442e-06 -4.3855e-04 -3.5259e-05 3.1421e-05 3.1964e-03 -2.4724e-05 5.9710e-06 -4.4358e-04 -3.9603e-05 1.4211e-05 
0.0000e+00 0.0000e+00 0.0000e+00 0.0000e+00 0.0000e+00 0.0000e+00 0.0000e+00 0.0000e+00 0.0000e+00 0.0000e+00 0.0000e+00 0.0000e+00 0.0000e+00 0.0000e+00 0.0000e+00 0.0000e+00 0.0000e+00 0.0000e+00 0.0000e+00 0.0000e+00 0.0000e+00 0.0000e+00 0.0000e+00 0.0000e+00 0.0000e+00 0.0000e+00 0.0000e+00 0.0000e+00 0.0000e+00 0.0000e+00 
0.0000e+00 0.0000e+00 0.0000e+00 0.0000e+00 0.0000e+00 0.0000e+00 0.0000e+00 0.0000e+00 0.0000e+00 0.0000e+00 0.0000e+00 0.0000e+00 0.0000e+00 0.0000e+00 0.0000e+00 0.0000e+00 0.0000e+00 0.0000e+00 0.0000e+00 0.0000e+00 0.0000e+00 0.0000e+00 0.0000e+00 0.0000e+00 0.0000e+00 0.0000e+00 0.0000e+00 0.0000e+00 0.0000e+00 0.0000e+00 
3.3561e-03 -1.0343e-05 -2.1306e-05 -4.6512e-04 2.2390e-06 -1.1939e-09 3.3603e-03 1.1900e-05 -3.1992e-06 -4.9478e-04 1.1772e-05 -1.1744e-05 3.4104e-03 7.3423e-05 1.8529e-05 -7.6105e-04 -1.6853e-04 -9.7305e-06 3.5016e-03 2.2189e-05 -1.9790e-05 -7.8121e-04 2.4012e-04 -3.1816e-05 3.4512e-03 5.0718e-06 4.6086e-06 -5.2407e-04 7.3933e-05 1.5234e-05 
5.1927e-03 -6.2283e-05 -7.0117e-06 1.4559e-03 -7.6678e-05 -1.8368e-06 5.0985e-03 -8.2043e-05 -1.5895e-04 1.2693e-03 -4.1645e-05 -1.8320e-04 5.1334e-03 -7.1631e-06 1.8656e-04 8.1829e-04 4.1676e-05 1.4749e-04 5.3317e-03 9.9132e-06 -3.3116e-05 9.6722e-04 -1.5860e-05 -2.0927e-05 5.2718e-03 -2.6883e-05 -3.8225e-05 1.4023e-03 -6.0867e-05 2.8137e-06 
6.3720e-03 -6.0437e-06 2.2294e-06 2.6200e-03 1.3239e-05 -1.7171e-05 6.4039e-03 1.0796e-05 1.9999e-06 2.5857e-03 2.7963e-05 1.5290e-05 6.3717e-03 1.2584e-05 -1.2940e-05 2.3624e-03 2.3140e-04 4.9198e-08 6.3551e-03 9.0275e-05 -8.2187e-06 2.3546e-03 -8.8958e-05 -1.2992e-05 6.3619e-03 4.4985e-05 -5.9477e-06 2.6000e-03 -1.5823e-05 -9.0427e-06 
6.8717e-03 -8.0491e-05 -1.8345e-05 3.1790e-03 -2.6450e-05 -1.9173e-05 6.8515e-03 -9.9787e-06 1.7496e-05 3.1226e-03 -2.6948e-05 -2.0017e-05 6.7512e-03 2.0023e-05 -4.8164e-05 3.1156e-03 1.7236e-05 4.4260e-05 6.7867e-03 -1.7118e-05 2.8952e-06 3.1553e-03 -3.9304e-05 -2.4210e-05 6.7785e-03 -6.9878e-05 4.6819e-05 3.1880e-03 -9.1412e-05 9.0816e-06 
6.7460e-03 4.1336e-06 -8.8936e-06 3.1478e-03 4.9948e-05 8.2261e-06 6.7271e-03 9.5183e-05 9.9012e-06 3.1365e-03 8.5061e-05 -1.5529e-05 6.6904e-03 1.0074e-04 -9.1363e-07 3.1974e-03 9.1211e-05 -6.6986e-06 6.7481e-03 3.5179e-06 3.8413e-06 3.2218e-03 -5.1214e-05 3.7521e-05 6.7191e-03 -4.1847e-05 7.2902e-06 3.1716e-03 -2.0700e-05 -1.4540e-05 
6.1727e-03 -2.5246e-05 2.1754e-05 2.5935e-03 -5.2360e-06 -5.5958e-06 6.1587e-03 -5.9281e-06 -2.5663e-05 2.6158e-03 -1.4783e-05 2.8597e-05 6.1760e-03 -2.5019e-05 -1.5964e-05 2.7356e-03 3.6765e-06 -7.3148e-06 6.1720e-03 -5.2670e-05 4.6005e-05 2.7231e-03 -1.2113e-04 3.4016e-05 6.1840e-03 -7.1474e-05 -2.0682e-05 2.5868e-03 -5.0780e-05 -5.6495e-05 
5.0932e-03 6.4905e-05 -1.2730e-05 1.5110e-03 5.5476e-05 -2.6022e-06 5.0576e-03 3.2364e-05 -2.2772e-05 1.5578e-03 3.0654e-05 2.6559e-05 5.0748e-03 5.0015e-05 -1.2641e-05 1.6240e-03 1.4281e-05 2.9842e-06 5.0246e-03 5.3323e-06 1.5876e-05 1.5796e-03 1.1789e-05 -9.6325e-06 5.0662e-03 2.4581e-05 3.5580e-05 1.4871e-03 5.0702e-05 -1.9100e-05 
3.2520e-03 2.0764e-06 -2.2373e-05 -3.5500e-04 -4.6651e-05 5.8416e-06 3.2381e-03 -2.3006e-05 3.3626e-06 -3.1694e-04 -1.7482e-05 -2.4261e-05 3.2516e-03 -2.7308e-05 1.0973e-05 -3.1482e-04 -6.0805e-05 1.7073e-05 3.2454e-03 -4.8292e-05 -4.8070e-06 -3.3857e-04 -4.5303e-05 -7.2321e-07 3.2496e-03 -3.9236e-05 2.1977e-05 -3.7535e-04 -4.4754e-05 1.2519e-05 
0.0000e+00 0.0000e+00 0.0000e+00 0.0000e+00 0.0000e+00 0.0000e+00 0.0000e+00 0.0000e+00 0.0000e+00 0.0000e+00 0.0000e+00 0.0000e+00 0.0000e+00 0.0000e+00 0.0000e+00 0.0000e+00 0.0000e+00 0.0000e+00 0.0000e+00 0.0000e+00 0.0000e+00 0.0000e+00 0.0000e+00 0.0000e+00 0.0000e+00 0.0000e+00 0.0000e+00 0.0000e+00 0.0000e+00 0.0000e+00 
0.0000e+00 0.0000e+00 0.0000e+00 0.0000e+00 0.0000e+00 0.0000e+00 0.0000e+00 0.0000e+00 0.0000e+00 0.0000e+00 0.0000e+00 0.0000e+00 0.0000e+00 0.0000e+00 0.0000e+00 0.0000e+00 0.0000e+00 0.0000e+00 0.0000e+00 0.0000e+00 0.0000e+00 0.0000e+00 0.0000e+00 0.0000e+00 0.0000e+00 0.0000e+00 0.0000e+00 0.0000e+00 0.0000e+00 0.0000e+00 
2.8837e-03 7.2295e-06 -1.2115e-05 -4.5144e-04 1.0551e-04 -6.3531e-07 3.1149e-03 -1.5340e-04 2.3656e-06 -6.1211e-04 -2.7767e-04 1.4320e-05 3.1977e-03 2.1008e-04 1.0861e-05 -7.0578e-04 1.9627e-04 3.6828e-05 3.3893e-03 1.2527e-05 5.4357e-06 -5.6548e-04 1.2774e-04 -3.8807e-05 3.3960e-03 -2.7671e-05 -1.5684e-05 -5.6179e-04 2.5788e-05 -1.7565e-05 
5.0647e-03 -5.6215e-05 -1.2968e-05 1.3931e-03 -8.4102e-05 -1.1596e-06 4.6757e-03 -7.6103e-05 6.6763e-06 1.0751e-03 -4.1097e-05 2.3877e-05 4.8577e-03 -6.8601e-05 2.4858e-05 8.3752e-04 -1.0234e-05 2.0514e-04 5.2182e-03 2.0791e-05 4.0723e-06 1.1294e-03 6.2553e-05 -2.0729e-04 5.0360e-03 2.1258e-05 -3.7986e-05 1.3629e-03 -7.6352e-05 -3.9001e-05 
6.1912e-03 -6.7870e-06 -2.1212e-05 2.5271e-03 -1.4016e-05 -2.0044e-06 6.0937e-03 1.5439e-04 1.3005e-05 2.3097e-03 1.6765e-04 2.7944e-05 6.0002e-03 -1.8910e-04 3.1611e-05 2.2978e-03 -5.0587e-05 1.4523e-05 6.1677e-03 1.1503e-04 7.5889e-07 2.4711e-03 7.5589e-05 -1.8792e-05 6.1613e-03 1.0061e-04 -4.7729e-05 2.5469e-03 1.1530e-05 -4.7762e-05 
6.6486e-03 -8.3346e-05 -2.1879e-05 3.0858e-03 -2.3594e-06 -1.1381e-06 6.6837e-03 1.4673e-06 1.7021e-05 2.9277e-03 -1.7595e-05 2.3404e-05 6.5249e-03 3.6254e-07 2.5823e-05 2.9620e-03 -6.3403e-07 1.1522e-05 6.3131e-03 -1.0555e-05 -3.6913e-06 3.0836e-03 -1.7454e-05 -2.8589e-05 6.6309e-03 -6.6856e-05 -4.9359e-05 3.0749e-03 -1.1702e-04 -4.2812e-05 
6.5643e-03 4.2001e-05 -2.0012e-05 2.9864e-03 5.3134e-05 1.4613e-06 6.4885e-03 3.4475e-05 1.7893e-05 2.9431e-03 1.1649e-04 1.8547e-05 6.4112e-03 1.0618e-04 1.6943e-05 2.9958e-03 4.0900e-05 7.7910e-06 6.4918e-03 4.6685e-05 -1.2699e-05 3.1218e-03 -1.0848e-05 -3.8639e-05 6.5032e-03 -7.1868e-05 -4.4713e-05 3.0500e-03 -4.6672e-05 -3.6215e-05 
6.0169e-03 -3.1045e-05 -1.5171e-05 2.2267e-03 -1.6068e-05 5.4700e-06 5.9644e-03 -2.3425e-05 1.4822e-05 2.4627e-03 9.7972e-06 1.7510e-05 5.8842e-03 -1.5601e-06 1.1574e-05 2.6334e-03 1.3976e-05 -6.5656e-07 5.9700e-03 -5.0796e-05 -1.7838e-05 2.6033e-03 -1.6640e-04 -3.3464e-05 5.9281e-03 -1.0277e-04 -3.7929e-05 2.4880e-03 -6.2752e-05 -3.4530e-05 
4.9865e-03 4.2313e-05 -1.1001e-05 1.3854e-03 7.3171e-05 3.4481e-06 3.1789e-03 3.9757e-05 -2.6739e-05 1.4249e-03 8.3778e-06 1.3956e-05 4.7470e-03 6.3959e-05 1.0489e-05 1.5383e-03 3.1964e-06 -1.6561e-06 4.8563e-03 -4.5019e-05 -1.6427e-05 -9.7193e-04 -6.8375e-05 1.4072e-05 4.9307e-03 4.7982e-05 -3.0678e-05 1.3506e-03 1.0232e-04 -2.6586e-05 
3.2154e-03 9.1661e-06 -5.4867e-06 -3.6391e-04 -4.4230e-05 1.3481e-06 3.1644e-03 -2.8410e-05 6.0140e-06 -3.5120e-04 -2.2646e-04 7.9725e-06 3.1720e-03 -3.5963e-05 5.2429e-06 -3.3073e-04 8.3149e-05 2.7093e-07 3.1334e-03 -3.4371e-06 -8.5358e-06 -3.3653e-04 -3.1821e-05 -1.5784e-05 3.1966e-03 -1.0578e-04 -1.4972e-05 -4.5174e-04 3.3280e-06 -1.1826e-05 
0.0000e+00 0.0000e+00 0.0000e+00 0.0000e+00 0.0000e+00 0.0000e+00 0.0000e+00 0.0000e+00 0.0000e+00 0.0000e+00 0.0000e+00 0.0000e+00 0.0000e+00 0.0000e+00 0.0000e+00 0.0000e+00 0.0000e+00 0.0000e+00 0.0000e+00 0.0000e+00 0.0000e+00 0.0000e+00 0.0000e+00 0.0000e+00 0.0000e+00 0.0000e+00 0.0000e+00 0.0000e+00 0.0000e+00 0.0000e+00 
0.0000e+00 0.0000e+00 0.0000e+00 0.0000e+00 0.0000e+00 0.0000e+00 0.0000e+00 0.0000e+00 0.0000e+00 0.0000e+00 0.0000e+00 0.0000e+00 0.0000e+00 0.0000e+00 0.0000e+00 0.0000e+00 0.0000e+00 0.0000e+00 0.0000e+00 0.0000e+00 0.0000e+00 0.0000e+00 0.0000e+00 0.0000e+00 0.0000e+00 0.0000e+00 0.0000e+00 0.0000e+00 0.0000e+00 0.0000e+00 
3.1807e-03 -3.0159e-06 1.1883e-05 -5.5460e-04 1.0297e-05 9.9331e-06 3.1809e-03 1.5857e-05 1.9471e-05 -5.6044e-04 2.2688e-05 2.4697e-05 3.2056e-03 4.8233e-05 -5.7151e-06 -5.7196e-04 4.6175e-05 3.3764e-06 3.2315e-03 2.5979e-05 3.8664e-07 -5.9553e-04 3.3368e-05 7.5990e-06 3.2486e-03 2.9072e-05 -4.0934e-05 -5.7735e-04 5.9343e-05 -5.3073e-05 
4.7880e-03 -5.3073e-05 -9.9810e-06 1.1318e-03 -6.5938e-05 1.3284e-05 4.6786e-03 -7.2795e-05 1.8671e-04 9.6420e-04 -4.4483e-05 2.2030e-04 4.7163e-03 -1.8883e-05 -1.5738e-04 9.4218e-04 -2.2136e-05 -1.2117e-04 4.8908e-03 2.9326e-06 8.4078e-06 1.0913e-03 3.7994e-05 -6.0855e-05 4.8651e-03 -1.7112e-05 -3.5183e-05 1.1229e-03 -5.2821e-05 -6.3990e-05 
5.8054e-03 2.5837e-06 -1.0241e-05 2.1184e-03 1.3206e-05 3.6810e-05 5.8210e-03 1.2821e-05 3.8588e-05 2.1003e-03 1.4199e-05 2.2753e-05 5.7811e-03 2.8631e-06 5.4032e-05 2.0908e-03 4.6372e-05 2.6217e-05 5.8195e-03 8.6867e-05 -2.3281e-05 2.1095e-03 9.0515e-05 -7.3995e-05 5.7875e-03 5.4909e-05 -7.6456e-05 2.1437e-03 3.8462e-06 -4.2603e-05 
6.2267e-03 -7.6264e-05 2.2303e-05 2.5820e-03 -3.0095e-05 4.7238e-05 6.2006e-03 -1.2159e-05 2.1181e-05 2.5228e-03 -4.6231e-05 5.8708e-05 6.0908e-03 2.8764e-06 8.1066e-05 2.5243e-03 1.7133e-05 -3.6283e-05 6.1508e-03 -1.3198e-05 -4.1071e-05 2.5866e-03 -3.6659e-05 -4.8544e-05 6.1414e-03 -5.0617e-05 -1.1138e-04 2.6218e-03 -6.2334e-05 -5.0232e-05 
6.1122e-03 6.7228e-06 1.1983e-05 2.5420e-03 4.7372e-05 1.5092e-05 6.0864e-03 8.3533e-05 2.6990e-05 2.5060e-03 6.9397e-05 4.5283e-05 6.0378e-03 8.0515e-05 2.5696e-05 2.5653e-03 8.2527e-05 6.7503e-06 6.0914e-03 5.6553e-06 -3.5259e-05 2.6065e-03 -3.6748e-05 -9.3185e-05 6.0911e-03 -1.7459e-05 -6.1254e-05 2.5693e-03 -8.6606e-06 -1.4542e-05 
5.6363e-03 -2.1978e-05 -2.1496e-05 2.0563e-03 -8.6687e-06 2.0869e-05 5.6119e-03 -1.7870e-05 5.5222e-05 2.0539e-03 -2.2477e-05 -3.9686e-06 5.6059e-03 -2.9615e-05 3.4975e-05 2.1647e-03 1.4869e-06 8.5383e-06 5.6065e-03 -5.0428e-05 -6.5052e-05 2.1733e-03 -1.0947e-04 -7.9453e-05 5.6377e-03 -6.0511e-05 -2.7714e-05 2.0504e-03 -4.6528e-05 3.3871e-05 
4.7344e-03 6.3768e-05 1.3715e-05 1.1339e-03 5.3482e-05 1.3216e-05 4.6859e-03 2.6747e-05 4.3876e-05 1.1607e-03 2.4167e-05 -5.1605e-06 4.6791e-03 4.3821e-05 2.7077e-05 1.2110e-03 1.1243e-05 -4.2917e-06 4.6299e-03 3.7164e-06 -3.4359e-05 1.1886e-03 1.0973e-05 -2.8937e-05 4.6940e-03 2.4862e-05 -7.6405e-05 1.1145e-03 5.1698e-05 -3.6682e-06 
3.1316e-03 2.8244e-06 2.2946e-05 -4.9594e-04 -4.5302e-05 3.9417e-06 3.1114e-03 -2.2255e-05 1.0555e-05 -4.7136e-04 -1.5205e-05 3.5603e-05 3.1095e-03 -2.8672e-05 -3.1636e-06 -4.7560e-04 -6.3595e-05 -1.8362e-05 3.0996e-03 -4.9560e-05 -1.0596e-05 -4.8669e-04 -4.6916e-05 -2.0248e-05 3.1218e-03 -4.3340e-05 -4.1625e-05 -5.1406e-04 -4.0618e-05 -2.6561e-05 
0.0000e+00 0.0000e+00 0.0000e+00 0.0000e+00 0.0000e+00 0.0000e+00 0.0000e+00 0.0000e+00 0.0000e+00 0.0000e+00 0.0000e+00 0.0000e+00 0.0000e+00 0.0000e+00 0.0000e+00 0.0000e+00 0.0000e+00 0.0000e+00 0.0000e+00 0.0000e+00 0.0000e+00 0.0000e+00 0.0000e+00 0.0000e+00 0.0000e+00 0.0000e+00 0.0000e+00 0.0000e+00 0.0000e+00 0.0000e+00 
0.0000e+00 0.0000e+00 0.0000e+00 0.0000e+00 0.0000e+00 0.0000e+00 0.0000e+00 0.0000e+00 0.0000e+00 0.0000e+00 0.0000e+00 0.0000e+00 0.0000e+00 0.0000e+00 0.0000e+00 0.0000e+00 0.0000e+00 0.0000e+00 0.0000e+00 0.0000e+00 0.0000e+00 0.0000e+00 0.0000e+00 0.0000e+00 0.0000e+00 0.0000e+00 0.0000e+00 0.0000e+00 0.0000e+00 0.0000e+00 
2.9624e-03 2.0402e-05 -1.1957e-05 -7.7969e-04 1.9821e-05 5.6432e-06 2.9433e-03 1.7054e-05 4.3801e-07 -7.8275e-04 5.1186e-05 -7.5915e-06 2.9354e-03 1.8667e-05 9.5127e-06 -7.7783e-04 4.1418e-05 1.0377e-05 2.9501e-03 2.6546e-05 -4.1418e-06 -7.7845e-04 2.7010e-05 7.5213e-06 2.9567e-03 2.9953e-05 -1.5764e-06 -7.5912e-04 4.0517e-05 -2.4041e-05 
4.1783e-03 -4.9880e-05 -8.9894e-06 5.0227e-04 -4.4264e-05 3.4016e-05 4.2126e-03 -4.9173e-05 1.5264e-05 4.8097e-04 -4.4000e-05 -7.2560e-06 4.1849e-03 -2.1114e-05 -1.2343e-05 4.9051e-04 -2.8019e-06 1.7320e-05 4.1959e-03 -1.2647e-05 2.2711e-05 4.9894e-04 -2.2868e-05 -7.6173e-06 4.2328e-03 -2.6774e-05 -1.8975e-05 5.0962e-04 -3.0274e-05 -5.2758e-05 
4.9193e-03 1.3186e-05 -1.5620e-05 1.2068e-03 2.9550e-05 2.7907e-05 4.8982e-03 1.4520e-05 3.7485e-05 1.2074e-03 1.7611e-05 1.3076e-05 4.9270e-03 5.1449e-05 2.3452e-05 1.1983e-03 2.6896e-05 4.5241e-05 4.9212e-03 5.4559e-05 -1.0446e-05 1.2036e-03 7.9516e-05 -6.0281e-05 4.9295e-03 1.3997e-05 -3.7653e-05 1.2299e-03 3.5778e-06 -4.0465e-05 
5.1993e-03 -4.4895e-05 -4.4426e-06 1.5184e-03 -4.3970e-05 3.0085e-05 5.1786e-03 -3.3256e-05 4.2629e-05 1.5267e-03 -1.9711e-05 4.0187e-05 5.1447e-03 -1.9086e-05 7.9149e-05 1.5330e-03 4.0956e-06 5.0184e-05 5.2156e-03 -4.6263e-06 -3.6990e-05 1.5211e-03 -3.2857e-05 -1.1640e-04 5.1495e-03 -4.0253e-05 -9.7695e-05 1.5529e-03 -5.1654e-05 -3.3952e-05 
5.1478e-03 -2.9285e-06 3.6496e-05 1.5273e-03 3.6966e-05 3.2784e-05 5.1259e-03 7.1968e-05 2.2882e-05 1.5257e-03 4.1843e-05 5.1800e-05 5.1493e-03 5.0419e-05 1.8398e-05 1.5436e-03 6.7671e-05 5.1178e-06 5.1388e-03 1.4344e-05 -5.4021e-05 1.5279e-03 -1.9710e-05 -8.8615e-05 5.1480e-03 2.1340e-05 -5.3865e-05 1.5431e-03 2.4397e-05 -4.2069e-05 
4.8147e-03 -2.5592e-05 3.8553e-05 1.2314e-03 -2.0233e-05 2.1539e-05 4.8078e-03 -1.2534e-05 -1.4530e-05 1.1886e-03 -3.6745e-05 1.3152e-05 4.8292e-03 -1.7108e-05 2.1226e-05 1.2172e-03 -2.4681e-05 -3.8342e-05 4.8047e-03 -4.8107e-05 -2.5976e-05 1.2233e-03 -4.5505e-05 -3.4398e-05 4.8116e-03 -4.9924e-05 -5.4824e-05 1.1701e-03 -3.3989e-05 -2.1900e-06 
4.1414e-03 5.8241e-05 9.3299e-06 5.1819e-04 3.5518e-05 7.7320e-06 4.1147e-03 1.8727e-05 3.9178e-05 5.3083e-04 4.2792e-05 7.3213e-05 4.1612e-03 2.7315e-05 2.2737e-05 5.2314e-04 2.2308e-05 -4.5343e-05 4.1001e-03 3.0849e-05 -5.2677e-05 4.9753e-04 1.5868e-05 -3.3365e-05 4.1287e-03 1.2642e-05 -4.8007e-05 5.1268e-04 1.8949e-05 -4.2719e-05 
2.9094e-03 -2.2206e-05 -8.5482e-06 -7.5159e-04 -3.9214e-05 2.2806e-06 2.9226e-03 -2.7166e-05 1.4857e-05 -7.4340e-04 -9.9303e-06 4.1155e-05 2.9177e-03 -1.6014e-05 1.5835e-05 -7.4022e-04 -4.3599e-05 -9.7174e-06 2.9098e-03 -4.2639e-05 -1.6761e-05 -7.6367e-04 -5.4854e-05 -2.9654e-05 2.9070e-03 -2.1320e-05 -2.6826e-05 -7.5886e-04 -4.4078e-05 -2.4760e-05 
0.0000e+00 0.0000e+00 0.0000e+00 0.0000e+00 0.0000e+00 0.0000e+00 0.0000e+00 0.0000e+00 0.0000e+00 0.0000e+00 0.0000e+00 0.0000e+00 0.0000e+00 0.0000e+00 0.0000e+00 0.0000e+00 0.0000e+00 0.0000e+00 0.0000e+00 0.0000e+00 0.0000e+00 0.0000e+00 0.0000e+00 0.0000e+00 0.0000e+00 0.0000e+00 0.0000e+00 0.0000e+00 0.0000e+00 0.0000e+00 
0.0000e+00 0.0000e+00 0.0000e+00 0.0000e+00 0.0000e+00 0.0000e+00 0.0000e+00 0.0000e+00 0.0000e+00 0.0000e+00 0.0000e+00 0.0000e+00 0.0000e+00 0.0000e+00 0.0000e+00 0.0000e+00 0.0000e+00 0.0000e+00 0.0000e+00 0.0000e+00 0.0000e+00 0.0000e+00 0.0000e+00 0.0000e+00 0.0000e+00 0.0000e+00 0.0000e+00 0.0000e+00 0.0000e+00 0.0000e+00 
2.4158e-03 2.6461e-05 8.4306e-07 -1.2805e-03 2.8947e-05 1.3921e-07 2.4055e-03 2.4258e-05 5.8732e-06 -1.2857e-03 3.1627e-05 -5.8481e-07 2.3934e-03 2.2961e-05 6.8050e-06 -1.2785e-03 3.6088e-05 -1.0614e-05 2.3944e-03 2.8617e-05 -3.6461e-06 -1.2700e-03 2.4038e-05 -3.2987e-07 2.4089e-03 3.1265e-05 -9.9878e-06 -1.2691e-03 3.0733e-05 -6.6061e-06 
2.9497e-03 -3.7985e-05 7.2949e-06 -7.4623e-04 -3.5201e-05 -6.0451e-07 2.9333e-03 -2.9655e-05 1.8802e-05 -7.5930e-04 -3.7529e-05 5.8693e-06 2.9295e-03 -2.8621e-05 9.1793e-06 -7.4584e-04 -1.7475e-05 -2.5068e-05 2.9239e-03 -1.8752e-05 -8.1278e-06 -7.4093e-04 -2.4992e-05 -1.3775e-05 2.9506e-03 -3.0778e-05 -6.1477e-06 -7.3315e-04 -3.0693e-05 -9.4359e-06 
3.2164e-03 1.9912e-05 1.2913e-05 -4.6466e-04 2.4243e-05 4.3569e-06 3.1964e-03 2.0254e-05 2.6957e-05 -4.8190e-04 2.5278e-05 1.5535e-05 3.2105e-03 4.1811e-05 -8.3116e-07 -4.6808e-04 4.2806e-05 -3.3692e-05 3.1984e-03 4.0608e-05 -1.6469e-05 -4.7373e-04 3.6391e-05 -2.0793e-05 3.2139e-03 2.3592e-05 -8.0818e-06 -4.6194e-04 1.9444e-05 -1.8233e-05 
3.3229e-03 -3.1554e-05 8.8268e-06 -3.5836e-04 -3.7510e-05 1.1815e-05 3.3041e-03 -3.9638e-05 3.6450e-05 -3.4456e-04 -2.5231e-05 1.0221e-05 3.3254e-03 -1.6416e-05 8.5554e-06 -3.4862e-04 -1.6224e-05 -2.2986e-05 3.3069e-03 -2.0280e-05 -1.6512e-05 -3.6212e-04 -2.4101e-05 -3.5097e-05 3.3123e-03 -3.3310e-05 -1.1361e-05 -3.4274e-04 -3.6713e-05 -1.0960e-05 
3.3094e-03 2.6421e-05 6.4560e-06 -3.5804e-04 3.0681e-05 -4.0084e-06 3.2969e-03 3.6881e-05 2.1931e-05 -3.4089e-04 3.8057e-05 1.3165e-06 3.3074e-03 3.3656e-05 1.6468e-05 -3.4923e-04 3.0169e-05 -2.9760e-06 3.2912e-03 2.7934e-05 -3.5589e-06 -3.5841e-04 2.5979e-05 -1.9237e-05 3.2962e-03 2.3478e-05 -2.9110e-06 -3.4184e-04 2.3407e-05 -8.4085e-06 
3.1918e-03 -3.3454e-05 1.1478e-05 -4.6964e-04 -2.9713e-05 -8.0371e-07 3.1770e-03 -2.3764e-05 2.0737e-05 -4.6189e-04 -2.3939e-05 4.5891e-06 3.1861e-03 -2.8559e-05 8.6081e-06 -4.6601e-04 -3.4701e-05 2.3763e-06 3.1760e-03 -3.0723e-05 1.0787e-05 -4.8466e-04 -3.2575e-05 -2.5828e-05 3.1727e-03 -3.1960e-05 -8.7576e-06 -4.6507e-04 -3.0218e-05 -4.0030e-06 