<?xml version="1.0"?>
<!-- openLBMflow v1.0.1, www.lbmflow.com -->
<VTKFile type="ImageData" version="0.1" byte_order="LittleEndian">
  <ImageData WholeExtent="0 9 0 9 0 9" Origin="0 0 0" Spacing="1 1 1">
  <Piece Extent="0 9 0 9 0 9">
    <PointData Scalars="scalars">
      <DataArray type="Float32" Name="Velocity" NumberOfComponents="3" format="ascii">
0.0000e+00 0.0000e+00 0.0000e+00 0.0000e+00 0.0000e+00 0.0000e+00 0.0000e+00 0.0000e+00 0.0000e+00 0.0000e+00 0.0000e+00 0.0000e+00 0.0000e+00 0.0000e+00 0.0000e+00 0.0000e+00 0.0000e+00 0.0000e+00 0.0000e+00 0.0000e+00 0.0000e+00 0.0000e+00 0.0000e+00 0.0000e+00 0.0000e+00 0.0000e+00 0.0000e+00 0.0000e+00 0.0000e+00 0.0000e+00 
0.0000e+00 0.0000e+00 0.0000e+00 0.0000e+00 0.0000e+00 0.0000e+00 0.0000e+00 0.0000e+00 0.0000e+00 0.0000e+00 0.0000e+00 0.0000e+00 0.0000e+00 0.0000e+00 0.0000e+00 0.0000e+00 0.0000e+00 0.0000e+00 0.0000e+00 0.0000e+00 0.0000e+00 0.0000e+00 0.0000e+00 0.0000e+00 0.0000e+00 0.0000e+00 0.0000e+00 0.0000e+00 0.0000e+00 0.0000e+00 
0.0000e+00 0.0000e+00 0.0000e+00 0.0000e+00 0.0000e+00 0.0000e+00 0.0000e+00 0.0000e+00 0.0000e+00 0.0000e+00 0.0000e+00 0.0000e+00 0.0000e+00 0.0000e+00 0.0000e+00 0.0000e+00 0.0000e+00 0.0000e+00 0.0000e+00 0.0000e+00 0.0000e+00 0.0000e+00 0.0000e+00 0.0000e+00 0.0000e+00 0.0000e+00 0.0000e+00 0.0000e+00 0.0000e+00 0.0000e+00 
0.0000e+00 0.0000e+00 0.0000e+00 0.0000e+00 0.0000e+00 0.0000e+00 0.0000e+00 0.0000e+00 0.0000e+00 0.0000e+00 0.0000e+00 0.0000e+00 0.0000e+00 0.0000e+00 0.0000e+00 0.0000e+00 0.0000e+00 0.0000e+00 0.0000e+00 0.0000e+00 0.0000e+00 0.0000e+00 0.0000e+00 0.0000e+00 0.0000e+00 0.0000e+00 0.0000e+00 0.0000e+00 0.0000e+00 0.0000e+00 
0.0000e+00 0.0000e+00 0.0000e+00 0.0000e+00 0.0000e+00 0.0000e+00 0.0000e+00 0.0000e+00 0.0000e+00 0.0000e+00 0.0000e+00 0.0000e+00 0.0000e+00 0.0000e+00 0.0000e+00 0.0000e+00 0.0000e+00 0.0000e+00 0.0000e+00 0.0000e+00 0.0000e+00 0.0000e+00 0.0000e+00 0.0000e+00 0.0000e+00 0.0000e+00 0.0000e+00 0.0000e+00 0.0000e+00 0.0000e+00 
0.0000e+00 0.0000e+00 0.0000e+00 0.0000e+00 0.0000e+00 0.0000e+00 0.0000e+00 0.0000e+00 0.0000e+00 0.0000e+00 0.0000e+00 0.0000e+00 0.0000e+00 0.0000e+00 0.0000e+00 0.0000e+00 0.0000e+00 0.0000e+00 0.0000e+00 0.0000e+00 0.0000e+00 0.0000e+00 0.0000e+00 0.0000e+00 0.0000e+00 0.0000e+00 0.0000e+00 0.0000e+00 0.0000e+00 0.0000e+00 
0.0000e+00 0.0000e+00 0.0000e+00 0.0000e+00 0.0000e+00 0.0000e+00 0.0000e+00 0.0000e+00 0.0000e+00 0.0000e+00 0.0000e+00 0.0000e+00 0.0000e+00 0.0000e+00 0.0000e+00 0.0000e+00 0.0000e+00 0.0000e+00 0.0000e+00 0.0000e+00 0.0000e+00 0.0000e+00 0.0000e+00 0.0000e+00 0.0000e+00 0.0000e+00 0.0000e+00 0.0000e+00 0.0000e+00 0.0000e+00 
0.0000e+00 0.0000e+00 0.0000e+00 0.0000e+00 0.0000e+00 0.0000e+00 0.0000e+00 0.0000e+00 0.0000e+00 0.0000e+00 0.0000e+00 0.0000e+00 0.0000e+00 0.0000e+00 0.0000e+00 0.0000e+00 0.0000e+00 0.0000e+00 0.0000e+00 0.0000e+00 0.0000e+00 0.0000e+00 0.0000e+00 0.0000e+00 0.0000e+00 0.0000e+00 0.0000e+00 0.0000e+00 0.0000e+00 0.0000e+00 
0.0000e+00 0.0000e+00 0.0000e+00 0.0000e+00 0.0000e+00 0.0000e+00 0.0000e+00 0.0000e+00 0.0000e+00 0.0000e+00 0.0000e+00 0.0000e+00 0.0000e+00 0.0000e+00 0.0000e+00 0.0000e+00 0.0000e+00 0.0000e+00 0.0000e+00 0.0000e+00 0.0000e+00 0.0000e+00 0.0000e+00 0.0000e+00 0.0000e+00 0.0000e+00 0.0000e+00 0.0000e+00 0.0000e+00 0.0000e+00 
0.0000e+00 0.0000e+00 0.0000e+00 0.0000e+00 0.0000e+00 0.0000e+00 0.0000e+00 0.0000e+00 0.0000e+00 0.0000e+00 0.0000e+00 0.0000e+00 0.0000e+00 0.0000e+00 0.0000e+00 0.0000e+00 0.0000e+00 0.0000e+00 0.0000e+00 0.0000e+00 0.0000e+00 0.0000e+00 0.0000e+00 0.0000e+00 0.0000e+00 0.0000e+00 0.0000e+00 0.0000e+00 0.0000e+00 0.0000e+00 
0.0000e+00 0.0000e+00 0.0000e+00 0.0000e+00 0.0000e+00 0.0000e+00 0.0000e+00 0.0000e+00 0.0000e+00 0.0000e+00 0.0000e+00 0.0000e+00 0.0000e+00 0.0000e+00 0.0000e+00 0.0000e+00 0.0000e+00 0.0000e+00 0.0000e+00 0.0000e+00 0.0000e+00 0.0000e+00 0.0000e+00 0.0000e+00 0.0000e+00 0.0000e+00 0.0000e+00 0.0000e+00 0.0000e+00 0.0000e+00 
2.5060e-03 7.2029e-05 3.9000e-06 -1.4184e-03 -1.0062e-05 2.4798e-05 2.7339e-03 3.7043e-05 3.1739e-05 -1.6174e-03 9.3224e-06 -1.8392e-05 2.9224e-03 9.2158e-05 -2.7884e-05 -1.7514e-03 -6.8396e-05 -2.7200e-05 2.9192e-03 -1.1982e-05 -9.0577e-06 -1.6867e-03 3.4140e-05 -7.3179e-06 2.8174e-03 -8.8150e-05 1.2583e-06 -1.4184e-03 6.2311e-06 -3.5062e-06 
3.2549e-03 -1.7744e-05 5.0961e-06 -8.9954e-04 3.0673e-05 -5.9998e-06 3.4035e-03 2.5249e-05 1.9240e-05 -9.7920e-04 7.9798e-05 -1.1986e-05 3.4964e-03 4.9590e-06 9.7915e-06 -1.2219e-03 -1.0849e-04 -5.6278e-05 3.7128e-03 -1.4670e-04 -4.5416e-05 -8.8626e-04 1.0092e-04 1.1016e-04 3.4005e-03 -6.2100e-06 -5.0589e-05 -6.5121e-04 -2.3523e-04 -1.0053e-05 
3.5890e-03 -7.0350e-06 -4.3639e-05 -6.3727e-04 7.2583e-05 -1.2739e-05 3.7377e-03 9.6052e-05 9.9113e-06 -6.7042e-04 4.0578e-05 -3.5892e-05 3.7566e-03 -7.0243e-05 -2.2713e-05 -7.8416e-04 1.1862e-04 9.4402e-06 3.8071e-03 5.6996e-05 1.1374e-05 -3.0214e-04 -1.0419e-04 4.2539e-05 3.3561e-03 4.1046e-05 -6.4435e-06 -2.7980e-04 2.0652e-07 1.3173e-05 
3.7231e-03 -3.3757e-05 -9.2036e-05 -4.2886e-04 2.1900e-05 1.6940e-05 3.7910e-03 -2.1434e-05 1.3514e-05 -5.0259e-04 -8.2398e-05 -1.1467e-04 4.0134e-03 -4.0184e-05 -8.0614e-05 -3.4349e-04 -5.9576e-05 1.1452e-04 3.7691e-03 -3.6464e-05 1.0143e-04 -3.0946e-04 -2.0649e-04 -3.8809e-06 3.8467e-03 -5.5519e-06 -2.7715e-05 -3.7511e-04 1.8142e-04 1.1205e-05 
3.8754e-03 -1.4136e-04 -6.3561e-05 -3.5138e-04 3.9618e-05 3.6545e-05 3.6422e-03 4.0662e-06 3.4992e-06 -3.9065e-04 4.6370e-05 -1.3209e-04 6.7854e-03 -3.3897e-05 6.8296e-06 -5.7855e-04 -7.1550e-05 3.9873e-05 3.8667e-03 -9.7690e-06 5.0551e-05 -5.0787e-04 1.0447e-04 4.6468e-05 4.0473e-03 2.2927e-04 -4.7444e-05 -4.8649e-04 7.1975e-05 2.2012e-05 
3.9340e-03 1.0510e-05 -1.6504e-05 -5.1052e-04 -6.4497e-05 -9.6600e-06 3.5364e-03 -5.6602e-05 -2.8786e-06 -5.2288e-04 -2.4129e-05 -2.5659e-05 3.5750e-03 -5.6719e-05 3.4807e-05 -7.6620e-04 2.7068e-05 -4.5161e-05 3.7770e-03 4.8527e-05 -1.4905e-05 -6.7898e-04 -1.5164e-05 6.6795e-05 4.0842e-03 -3.9053e-05 -7.4777e-05 -9.6869e-04 -5.8401e-05 -7.2120e-06 
3.4389e-03 2.6634e-04 -1.1540e-05 -8.3948e-04 9.9011e-05 -1.9379e-05 3.1935e-03 4.2638e-05 -1.7257e-05 -8.6672e-04 1.3480e-05 -4.8761e-06 3.2026e-03 -3.3322e-05 -8.7735e-06 -9.6091e-04 3.4588e-05 -4.3667e-05 3.2943e-03 3.2733e-05 4.7589e-06 -9.3485e-04 -2.2165e-05 5.0563e-05 3.5058e-03 -1.5729e-04 -4.1526e-05 -8.0536e-04 1.7895e-05 1.1940e-05 
2.6534e-03 -2.2992e-05 -1.2964e-05 -1.3920e-03 -2.1352e-05 4.4206e-06 2.5312e-03 -2.0511e-05 -2.4107e-05 -1.4086e-03 3.4956e-05 -2.3653e-05 2.5719e-03 7.3757e-06 -3.5046e-05 -1.3416e-03 3.7843e-05 1.3488e-05 2.5836e-03 -5.0435e-05 3.0692e-05 -1.4348e-03 -6.1585e-05 2.7545e-05 2.6526e-03 2.2701e-06 1.0938e-05 -1.4492e-03 -3.7114e-05 -1.2386e-05 
0.0000e+00 0.0000e+00 0.0000e+00 0.0000e+00 0.0000e+00 0.0000e+00 0.0000e+00 0.0000e+00 0.0000e+00 0.0000e+00 0.0000e+00 0.0000e+00 0.0000e+00 0.0000e+00 0.0000e+00 0.0000e+00 0.0000e+00 0.0000e+00 0.0000e+00 0.0000e+00 0.0000e+00 0.0000e+00 0.0000e+00 0.0000e+00 0.0000e+00 0.0000e+00 0.0000e+00 0.0000e+00 0.0000e+00 0.0000e+00 
0.0000e+00 0.0000e+00 0.0000e+00 0.0000e+00 0.0000e+00 0.0000e+00 0.0000e+00 0.0000e+00 0.0000e+00 0.0000e+00 0.0000e+00 0.0000e+00 0.0000e+00 0.0000e+00 0.0000e+00 0.0000e+00 0.0000e+00 0.0000e+00 0.0000e+00 0.0000e+00 0.0000e+00 0.0000e+00 0.0000e+00 0.0000e+00 0.0000e+00 0.0000e+00 0.0000e+00 0.0000e+00 0.0000e+00 0.0000e+00 
3.3365e-03 2.6257e-05 -6.1850e-06 -9.8013e-04 4.0764e-05 5.5867e-05 3.3777e-03 4.6301e-05 4.4954e-06 -1.0835e-03 2.1085e-05 3.3796e-05 3.4382e-03 2.4909e-05 -1.2648e-05 -1.0998e-03 6.0008e-05 7.9716e-06 3.4254e-03 6.4382e-06 2.9905e-05 -1.0715e-03 4.4639e-05 1.5633e-05 3.4052e-03 -2.0450e-05 2.0142e-05 -9.7268e-04 1.1383e-06 -6.9868e-05 
4.7295e-03 -1.6732e-05 -3.9119e-05 3.7033e-04 8.7685e-06 6.4387e-05 4.7442e-03 -1.5578e-05 2.9553e-05 2.9749e-04 1.3016e-06 6.6762e-06 4.8343e-03 -4.8419e-06 -6.4466e-05 7.6172e-05 -8.1682e-05 -8.4300e-05 4.8291e-03 -8.8695e-05 6.3221e-05 1.4928e-04 -4.9326e-05 1.0154e-04 4.7833e-03 -2.1020e-05 2.1482e-05 3.8203e-04 -2.7007e-05 -6.5841e-05 
5.4962e-03 2.6315e-05 -2.5371e-05 1.1523e-03 6.1858e-05 3.7129e-05 5.5435e-03 6.8729e-05 9.5752e-06 1.1587e-03 9.8023e-05 -2.0168e-05 5.5837e-03 4.2017e-05 -3.5319e-05 1.0943e-03 -3.4955e-05 5.1460e-05 5.6039e-03 -4.2157e-05 7.9268e-05 1.3339e-03 -2.8282e-05 -1.5648e-04 5.5358e-03 1.7839e-05 -3.0210e-05 1.3092e-03 1.9878e-05 1.0943e-04 
5.8110e-03 -4.0438e-06 -4.1711e-06 1.5412e-03 1.5609e-05 -2.6760e-05 5.8926e-03 -1.7203e-06 -3.6634e-05 1.5862e-03 -3.5522e-05 4.4676e-05 5.8758e-03 -3.2265e-05 5.2411e-05 1.5064e-03 -5.1932e-05 -3.0975e-05 5.9026e-03 -4.4292e-05 2.9304e-05 1.5486e-03 -4.1626e-05 9.1107e-05 5.8485e-03 -4.7353e-05 -3.1764e-05 1.4770e-03 -1.0132e-05 -5.7702e-05 
5.7701e-03 5.7208e-05 -1.6713e-05 1.6104e-03 5.7188e-05 -7.9598e-05 5.7793e-03 3.4097e-05 -3.6124e-05 1.6135e-03 -2.1241e-05 5.5920e-05 5.8490e-03 -1.3062e-06 -3.2456e-05 1.5081e-03 3.2134e-05 4.0996e-05 5.8885e-03 4.5739e-05 7.0725e-05 1.5089e-03 3.2499e-05 3.3938e-05 5.8280e-03 -5.8228e-06 1.1931e-05 1.5411e-03 5.1870e-05 -6.6006e-05 
5.6269e-03 1.4024e-05 1.8913e-04 1.2576e-03 3.6732e-07 -1.9933e-05 5.3563e-03 1.3504e-05 -1.8853e-05 1.1835e-03 -7.4972e-06 -8.2973e-06 5.4069e-03 -4.4653e-05 -6.4083e-05 1.1108e-03 -1.1645e-05 6.4431e-05 5.4617e-03 -3.0709e-05 4.6300e-05 1.1433e-03 -5.9341e-05 -2.0678e-05 5.6907e-03 -3.6479e-05 -1.7449e-04 1.2650e-03 -1.6954e-05 -3.4797e-05 
4.6149e-03 4.6611e-05 -2.2704e-05 4.7780e-04 7.2966e-05 -6.3898e-06 4.5518e-03 6.3870e-05 -2.0711e-05 4.2785e-04 5.0481e-05 -2.3229e-05 4.5717e-03 3.7172e-05 -3.2627e-05 3.9554e-04 4.9891e-06 2.7469e-05 4.6236e-03 -2.0489e-05 2.1885e-05 4.4115e-04 -1.9256e-05 2.7700e-06 4.6543e-03 1.9187e-05 4.1178e-05 5.1539e-04 3.2824e-05 9.5573e-06 
3.2138e-03 2.1905e-06 1.6014e-05 -8.8415e-04 -2.9793e-05 -4.2822e-05 3.1621e-03 8.4991e-06 -2.0063e-05 -8.7031e-04 6.6294e-06 1.1552e-05 3.1536e-03 9.6664e-06 2.7122e-05 -9.2068e-04 -2.4741e-05 -2.3159e-06 3.1697e-03 -4.6745e-05 -2.2697e-05 -8.8246e-04 -5.4324e-05 8.2347e-06 3.2429e-03 -2.9671e-05 -1.6817e-06 -8.6656e-04 -2.9884e-05 2.1593e-05 
0.0000e+00 0.0000e+00 0.0000e+00 0.0000e+00 0.0000e+00 0.0000e+00 0.0000e+00 0.0000e+00 0.0000e+00 0.0000e+00 0.0000e+00 0.0000e+00 0.0000e+00 0.0000e+00 0.0000e+00 0.0000e+00 0.0000e+00 0.0000e+00 0.0000e+00 0.0000e+00 0.0000e+00 0.0000e+00 0.0000e+00 0.0000e+00 0.0000e+00 0.0000e+00 0.0000e+00 0.0000e+00 0.0000e+00 0.0000e+00 
0.0000e+00 0.0000e+00 0.0000e+00 0.0000e+00 0.0000e+00 0.0000e+00 0.0000e+00 0.0000e+00 0.0000e+00 0.0000e+00 0.0000e+00 0.0000e+00 0.0000e+00 0.0000e+00 0.0000e+00 0.0000e+00 0.0000e+00 0.0000e+00 0.0000e+00 0.0000e+00 0.0000e+00 0.0000e+00 0.0000e+00 0.0000e+00 0.0000e+00 0.0000e+00 0.0000e+00 0.0000e+00 0.0000e+00 0.0000e+00 
3.6240e-03 -1.4372e-05 -1.0861e-05 -8.1076e-04 3.5776e-05 2.1338e-05 3.6397e-03 3.6138e-05 3.0576e-05 -8.4566e-04 4.1917e-05 4.0036e-06 3.6433e-03 3.4037e-05 1.2385e-05 -1.0089e-03 -9.7817e-05 -1.8416e-05 3.6424e-03 2.7355e-06 -9.2839e-06 -9.9046e-04 1.3462e-04 1.0324e-05 3.6233e-03 1.7539e-05 -2.5023e-05 -8.1594e-04 5.3260e-05 -1.7293e-05 
5.3784e-03 -9.8217e-06 -3.4976e-06 9.9436e-04 7.1104e-06 2.1797e-05 5.4045e-03 -4.0503e-06 3.0323e-05 9.3393e-04 -1.9446e-05 2.9765e-05 5.4248e-03 -2.8568e-05 -3.4408e-06 6.0963e-04 -3.5947e-05 -2.7122e-05 5.3494e-03 -8.2768e-05 -3.9322e-05 6.4135e-04 -5.4732e-05 -1.1281e-05 5.4426e-03 -1.8912e-05 9.7537e-06 9.5423e-04 -2.6735e-05 -1.9946e-05 
6.4373e-03 4.6843e-05 -5.4748e-05 2.0223e-03 3.7911e-05 1.0113e-06 6.4105e-03 4.3926e-05 4.4843e-05 1.9752e-03 7.3087e-05 1.4501e-05 6.4153e-03 5.1389e-05 -1.1658e-05 1.7678e-03 1.2857e-04 -8.1250e-06 6.4090e-03 -2.7428e-05 -3.4382e-06 1.8561e-03 -1.1771e-04 -1.3470e-05 6.4172e-03 -3.6573e-06 -4.4703e-06 1.9536e-03 -7.9222e-07 -8.1747e-06 
6.8804e-03 1.8421e-05 -7.7189e-05 2.5183e-03 -2.4679e-06 -2.7404e-05 6.9254e-03 -1.9551e-05 -2.4238e-05 2.5413e-03 -7.4546e-06 -7.2715e-05 6.8408e-03 -3.2967e-05 -2.3136e-05 2.4825e-03 -6.0547e-05 7.7619e-05 6.9207e-03 -2.9973e-05 9.6692e-05 2.5387e-03 -5.5348e-05 5.4948e-05 6.8801e-03 -5.9836e-05 -2.6802e-05 2.5166e-03 -5.0827e-06 -8.4607e-05 
6.8631e-03 3.0593e-05 -6.8424e-05 2.5598e-03 7.0562e-05 -2.9834e-05 6.8651e-03 6.8880e-05 8.4103e-06 2.5573e-03 -4.3224e-06 -1.7852e-05 6.8181e-03 -1.3010e-05 -2.3102e-05 2.5230e-03 3.3585e-05 3.9396e-05 6.8559e-03 9.3617e-06 4.0455e-05 2.5308e-03 -2.2728e-05 1.2701e-05 6.8571e-03 3.3322e-05 -2.6842e-05 2.5699e-03 4.6293e-05 -6.1647e-05 
6.3704e-03 1.3519e-05 -6.5536e-05 2.1516e-03 3.9310e-05 -5.9009e-06 6.3233e-03 3.1478e-05 2.8650e-05 2.0542e-03 -2.4449e-05 3.8162e-05 6.3305e-03 -3.6153e-05 4.2677e-07 2.0740e-03 -3.4388e-05 -1.7083e-05 6.3195e-03 -6.7264e-05 -5.3754e-06 2.1089e-03 -8.8984e-05 -1.5615e-05 6.3733e-03 -2.8877e-05 -1.8079e-05 2.0789e-03 1.4841e-05 -5.2999e-05 
5.2642e-03 9.1927e-05 -2.6791e-06 1.1283e-03 6.4252e-05 -1.2283e-05 5.2192e-03 4.2975e-05 4.3682e-06 1.0775e-03 5.0734e-05 -1.3207e-05 5.2397e-03 3.3500e-05 -9.7772e-06 1.0665e-03 -1.4758e-05 -1.2905e-05 5.1915e-03 -1.7794e-05 -2.5899e-05 1.1065e-03 -7.1493e-06 -3.3127e-05 5.3069e-03 -7.0183e-06 -2.1481e-05 1.1346e-03 3.7104e-05 2.1405e-05 
3.4551e-03 8.6041e-06 -1.6492e-05 -6.4905e-04 -1.5622e-05 -8.8874e-06 3.4372e-03 2.5435e-06 -1.2643e-05 -6.3622e-04 -6.3661e-06 -3.4258e-05 3.4204e-03 -9.9776e-06 -3.5450e-05 -6.7024e-04 -6.5552e-05 -2.1897e-06 3.4440e-03 -3.3560e-05 2.6410e-05 -6.4807e-04 -1.7256e-05 1.1277e-05 3.4793e-03 -2.7044e-05 -5.7827e-06 -6.1271e-04 -4.1146e-05 1.6967e-06 
0.0000e+00 0.0000e+00 0.0000e+00 0.0000e+00 0.0000e+00 0.0000e+00 0.0000e+00 0.0000e+00 0.0000e+00 0.0000e+00 0.0000e+00 0.0000e+00 0.0000e+00 0.0000e+00 0.0000e+00 0.0000e+00 0.0000e+00 0.0000e+00 0.0000e+00 0.0000e+00 0.0000e+00 0.0000e+00 0.0000e+00 0.0000e+00 0.0000e+00 0.0000e+00 0.0000e+00 0.0000e+00 0.0000e+00 0.0000e+00 
0.0000e+00 0.0000e+00 0.0000e+00 0.0000e+00 0.0000e+00 0.0000e+00 0.0000e+00 0.0000e+00 0.0000e+00 0.0000e+00 0.0000e+00 0.0000e+00 0.0000e+00 0.0000e+00 0.0000e+00 0.0000e+00 0.0000e+00 0.0000e+00 0.0000e+00 0.0000e+00 0.0000e+00 0.0000e+00 0.0000e+00 0.0000e+00 0.0000e+00 0.0000e+00 0.0000e+00 0.0000e+00 0.0000e+00 0.0000e+00 
3.6351e-03 2.4084e-05 2.4666e-05 -7.2655e-04 1.9112e-05 1.1542e-07 3.6695e-03 2.8724e-05 2.7338e-05 -8.1147e-04 3.8542e-05 -1.8704e-05 3.6810e-03 4.7882e-05 -2.7275e-06 -8.0147e-04 2.5336e-05 5.2664e-05 3.6422e-03 -3.8266e-05 -1.9292e-05 -7.6078e-04 2.6362e-05 -1.1150e-06 3.5895e-03 1.4908e-05 -6.2699e-06 -7.1559e-04 4.5228e-05 -6.6573e-06 
5.4966e-03 -2.0281e-05 3.9461e-05 1.1276e-03 -4.5182e-06 2.4231e-05 5.5519e-03 -2.3555e-06 3.3504e-05 1.1001e-03 1.2712e-05 3.5852e-05 5.5156e-03 -1.7361e-05 -3.2466e-07 8.9659e-04 -9.7275e-05 1.1161e-04 5.4581e-03 -9.6758e-05 -1.7942e-05 9.1739e-04 -6.8183e-05 -1.7462e-04 5.4673e-03 -2.2609e-05 -3.4046e-05 1.0810e-03 7.9119e-06 -4.2882e-05 
6.6216e-03 4.0387e-06 -8.2966e-06 2.1858e-03 3.1718e-05 3.3406e-05 6.6438e-03 3.9064e-05 3.3131e-05 2.2087e-03 3.9549e-05 5.6372e-05 6.4465e-03 4.1061e-05 -1.5403e-04 2.1494e-03 2.4492e-05 -4.4369e-05 6.4173e-03 1.2881e-05 1.8219e-04 2.1495e-03 1.2280e-05 -4.1539e-05 6.6376e-03 -1.7738e-06 -6.6417e-05 2.1128e-03 -4.4237e-06 -3.7542e-05 
7.0910e-03 -1.4113e-06 2.3200e-05 2.7504e-03 -5.3380e-06 -2.6267e-06 7.1501e-03 -1.1158e-05 2.9965e-05 2.4903e-03 -2.8690e-05 -2.2485e-04 7.1532e-03 -4.3308e-05 5.1360e-05 2.4846e-03 -5.5944e-05 2.9655e-04 7.1575e-03 -3.9910e-05 -1.5506e-05 2.7657e-03 -3.5025e-05 -3.1287e-05 7.0959e-03 -3.7990e-05 -1.0896e-04 2.7385e-03 -3.0868e-05 -2.5273e-05 
7.2079e-03 6.1148e-05 -6.9008e-05 2.7806e-03 6.1299e-05 -2.6446e-05 7.1710e-03 5.0216e-05 3.4343e-05 2.7786e-03 3.6183e-05 3.5320e-05 7.1487e-03 -1.2773e-05 2.3087e-05 2.8589e-03 -7.6764e-06 3.6951e-05 7.1433e-03 5.0638e-06 -2.1645e-05 2.8628e-03 -2.6576e-05 -3.4628e-05 7.1778e-03 1.4822e-05 1.0077e-05 2.8235e-03 6.4590e-05 -4.0746e-05 
6.6381e-03 5.3972e-05 1.4651e-06 2.3106e-03 2.5877e-05 -1.7574e-05 6.6312e-03 1.1505e-05 -6.8596e-06 2.2966e-03 -2.0856e-05 6.5271e-05 6.5948e-03 -3.5716e-05 6.6527e-06 2.3713e-03 -6.8056e-05 5.1003e-06 6.5578e-03 -9.0805e-05 -6.9367e-06 2.3881e-03 -7.7152e-05 -1.3212e-05 6.5976e-03 -2.6605e-05 -1.4667e-05 2.3155e-03 3.5480e-05 -4.5358e-05 
5.4129e-03 9.4714e-05 1.3160e-05 1.2882e-03 7.4951e-05 -8.1430e-06 5.4378e-03 5.0878e-05 7.0742e-06 1.2757e-03 1.1096e-05 4.1540e-05 5.4144e-03 6.7505e-06 1.2123e-05 1.2936e-03 -5.7513e-06 -2.0823e-05 5.3559e-03 -1.3923e-05 -1.8880e-05 1.3050e-03 -2.1418e-05 1.9832e-05 5.4012e-03 1.4755e-05 1.7417e-07 1.2960e-03 6.6721e-05 -2.5991e-05 
3.4901e-03 1.4103e-05 -1.0937e-05 -5.4657e-04 -1.6572e-05 7.5589e-07 3.4842e-03 -2.6501e-05 2.6067e-05 -5.5317e-04 -2.0366e-05 -2.0646e-06 3.4890e-03 -2.4562e-05 2.7499e-06 -5.6021e-04 -4.6334e-05 1.0039e-05 3.4581e-03 -1.9560e-05 -1.9294e-05 -5.6872e-04 -2.7308e-05 -1.9304e-05 3.4924e-03 -2.7371e-05 6.7458e-06 -5.4185e-04 -4.7369e-05 1.8851e-05 
0.0000e+00 0.0000e+00 0.0000e+00 0.0000e+00 0.0000e+00 0.0000e+00 0.0000e+00 0.0000e+00 0.0000e+00 0.0000e+00 0.0000e+00 0.0000e+00 0.0000e+00 0.0000e+00 0.0000e+00 0.0000e+00 0.0000e+00 0.0000e+00 0.0000e+00 0.0000e+00 0.0000e+00 0.0000e+00 0.0000e+00 0.0000e+00 0.0000e+00 0.0000e+00 0.0000e+00 0.0000e+00 0.0000e+00 0.0000e+00 
0.0000e+00 0.0000e+00 0.0000e+00 0.0000e+00 0.0000e+00 0.0000e+00 0.0000e+00 0.0000e+00 0.0000e+00 0.0000e+00 0.0000e+00 0.0000e+00 0.0000e+00 0.0000e+00 0.0000e+00 0.0000e+00 0.0000e+00 0.0000e+00 0.0000e+00 0.0000e+00 0.0000e+00 0.0000e+00 0.0000e+00 0.0000e+00 0.0000e+00 0.0000e+00 0.0000e+00 0.0000e+00 0.0000e+00 0.0000e+00 
3.5110e-03 9.2539e-05 -6.6463e-06 -7.3579e-04 1.3825e-06 3.6243e-07 3.6033e-03 -2.6714e-05 4.6564e-06 -8.2240e-04 3.5870e-05 9.7308e-06 3.6120e-03 -5.8569e-06 1.4335e-05 -8.1828e-04 1.9140e-05 -7.7917e-06 3.4914e-03 -2.1676e-05 -7.9563e-06 -1.6867e-03 3.4140e-05 -7.3179e-06 3.4579e-03 5.9988e-05 -1.7174e-05 -7.0243e-04 -6.0416e-05 -1.5667e-05 
5.3488e-03 -4.2627e-05 -1.2510e-05 9.9819e-04 1.1673e-05 5.7250e-07 5.4183e-03 -9.4676e-07 1.3998e-05 9.9148e-04 5.8716e-05 2.0968e-05 5.1381e-03 -2.0205e-04 1.7400e-05 9.6579e-04 -1.8459e-04 1.4189e-05 5.0942e-03 6.7703e-05 -1.2935e-05 9.4069e-04 -8.3288e-05 -3.9291e-05 5.1498e-03 -2.7721e-05 -3.3922e-05 9.6461e-04 -1.5657e-06 -2.9444e-05 
3.3890e-03 -7.0350e-06 -4.3639e-05 1.9863e-03 2.0364e-05 1.5906e-06 6.4606e-03 1.8461e-05 1.3660e-05 1.8176e-03 -2.3184e-04 1.7387e-05 6.0515e-03 6.1626e-05 1.9353e-05 1.7399e-03 2.9674e-04 7.4229e-06 6.0054e-03 2.0384e-05 -1.1110e-05 1.7762e-03 -2.0704e-06 -3.2496e-05 6.3334e-03 -8.2983e-05 -3.9108e-05 1.9458e-03 7.1590e-06 -3.1097e-05 
6.7956e-03 -5.9449e-05 -1.1389e-05 2.5260e-03 -4.2801e-05 7.2934e-07 6.9363e-03 8.7622e-06 8.4470e-06 2.0420e-03 -1.3679e-05 1.4408e-05 6.8103e-03 9.9710e-05 1.4232e-05 2.0163e-03 -5.0536e-05 1.4877e-06 6.7344e-03 -2.5920e-04 -1.1142e-05 2.5773e-03 -1.5015e-05 -2.7686e-05 6.8442e-03 9.8263e-06 -3.5574e-05 2.4876e-03 -6.8375e-05 -3.0419e-05 
6.9270e-03 2.2468e-05 -1.0224e-05 2.5787e-03 4.7484e-05 -3.0506e-07 6.9998e-03 2.4837e-05 7.9220e-06 2.2891e-03 3.0100e-04 9.1249e-06 6.9854e-03 -3.3897e-05 6.8296e-06 2.3962e-03 -2.4346e-04 -3.0094e-06 6.9077e-03 1.0003e-05 -1.4749e-05 2.7425e-03 -3.8143e-05 -2.5639e-05 6.9502e-03 7.8719e-05 -2.9096e-05 2.5830e-03 3.1968e-05 -2.5857e-05 
6.4801e-03 8.9229e-05 -9.8960e-06 1.9620e-03 1.4529e-05 1.4904e-06 6.5146e-03 -1.5002e-05 7.8135e-06 2.1512e-03 -3.1225e-05 4.1631e-06 6.4515e-03 -3.7301e-05 1.0047e-07 2.2679e-03 -9.9250e-05 -7.2004e-06 6.3787e-03 -9.5013e-05 -1.5758e-05 2.2564e-03 -2.5209e-05 -2.5807e-05 6.4184e-03 -1.5348e-05 -2.7770e-05 2.1766e-03 3.2285e-05 -2.2203e-05 
5.3156e-03 7.2703e-05 -1.1540e-05 1.1671e-03 8.5719e-05 -4.1045e-07 5.3613e-03 8.0049e-05 5.6940e-06 1.1723e-03 -1.5827e-05 1.6025e-06 5.2810e-03 8.9776e-06 -1.8912e-06 -9.6091e-04 -1.1866e-05 -6.6560e-06 5.2677e-03 -2.5392e-05 -1.2360e-05 1.2217e-03 -2.2693e-05 -2.1989e-05 5.1136e-03 2.5089e-05 -2.9148e-05 1.1811e-03 1.0303e-04 -2.2556e-05 
3.4153e-03 5.3584e-06 -7.5636e-06 -5.4727e-04 -2.9303e-05 -3.4837e-06 3.4437e-03 -5.7098e-05 5.5607e-07 -6.0723e-04 -1.1772e-04 1.7583e-06 3.4441e-03 -3.2077e-05 -2.1773e-06 -5.8023e-04 1.3224e-05 -7.0656e-06 3.3776e-03 -3.8992e-06 -8.6533e-06 -5.5706e-04 -1.6517e-04 -1.0401e-05 3.4131e-03 -4.7497e-05 -1.5589e-05 -5.7289e-04 8.1761e-05 -1.4871e-05 
0.0000e+00 0.0000e+00 0.0000e+00 0.0000e+00 0.0000e+00 0.0000e+00 0.0000e+00 0.0000e+00 0.0000e+00 0.0000e+00 0.0000e+00 0.0000e+00 0.0000e+00 0.0000e+00 0.0000e+00 0.0000e+00 0.0000e+00 0.0000e+00 0.0000e+00 0.0000e+00 0.0000e+00 0.0000e+00 0.0000e+00 0.0000e+00 0.0000e+00 0.0000e+00 0.0000e+00 0.0000e+00 0.0000e+00 0.0000e+00 
0.0000e+00 0.0000e+00 0.0000e+00 0.0000e+00 0.0000e+00 0.0000e+00 0.0000e+00 0.0000e+00 0.0000e+00 0.0000e+00 0.0000e+00 0.0000e+00 0.0000e+00 0.0000e+00 0.0000e+00 0.0000e+00 0.0000e+00 0.0000e+00 0.0000e+00 0.0000e+00 0.0000e+00 0.0000e+00 0.0000e+00 0.0000e+00 0.0000e+00 0.0000e+00 0.0000e+00 0.0000e+00 0.0000e+00 0.0000e+00 
3.4412e-03 3.1102e-05 -3.4759e-05 -7.9555e-04 1.3805e-05 1.3691e-05 3.4707e-03 2.9851e-05 1.9574e-06 -8.7840e-04 4.2554e-05 4.9578e-05 3.4502e-03 3.8523e-05 1.6566e-05 -8.7965e-04 3.6752e-05 -5.4273e-05 3.4327e-03 -4.4995e-05 1.3644e-05 -8.3677e-04 1.4039e-05 -7.7922e-06 3.3662e-03 2.9761e-05 -1.7535e-05 -7.8235e-04 4.4195e-05 -2.9021e-05 
5.0703e-03 -2.5858e-05 -4.7954e-05 8.1839e-04 -1.1851e-05 1.0737e-06 5.1088e-03 -9.3227e-06 1.5876e-05 7.6675e-04 -2.8578e-06 1.5911e-05 5.0499e-03 -1.8385e-05 3.4477e-05 7.3693e-04 -9.6695e-05 4.6095e-05 4.9849e-03 -9.2676e-05 6.3076e-06 7.5799e-04 -6.7019e-05 -1.4618e-05 5.0059e-03 -1.4972e-05 -2.3005e-05 7.7473e-04 1.3375e-05 -1.8708e-05 
6.0306e-03 8.0996e-06 1.0738e-06 1.7003e-03 2.5208e-05 -1.0792e-05 6.0333e-03 2.8039e-05 1.4746e-05 1.7042e-03 3.4493e-05 -1.0666e-05 5.8222e-03 3.2862e-05 1.8385e-04 1.6647e-03 1.2693e-05 5.5426e-05 5.7990e-03 1.8777e-05 -1.8584e-04 1.6568e-03 2.4765e-05 9.0788e-06 6.0182e-03 1.0347e-05 5.5532e-06 1.6267e-03 8.6456e-06 -1.8932e-05 
6.4162e-03 -2.8816e-06 -4.3327e-05 2.1638e-03 -1.8427e-05 1.8103e-05 6.4728e-03 -1.9856e-05 1.1983e-05 1.8889e-03 -3.1397e-05 2.6641e-04 6.4501e-03 -4.7369e-05 -2.3571e-05 1.8883e-03 -6.0727e-05 -2.8678e-04 6.4653e-03 -4.4571e-05 1.1644e-05 2.1670e-03 -2.7944e-05 -5.2948e-06 6.4091e-03 -2.5289e-05 6.1363e-05 2.1560e-03 -2.2403e-05 -2.3311e-05 
6.5429e-03 6.4305e-05 5.3320e-05 2.1863e-03 6.1470e-05 3.7145e-05 6.5100e-03 4.9516e-05 2.2678e-06 2.1631e-03 2.8906e-05 2.8231e-07 6.4524e-03 -1.8912e-05 4.6652e-06 2.2332e-03 -8.5822e-06 -2.8295e-05 6.4545e-03 3.9663e-06 8.6241e-06 2.2553e-03 -1.9024e-05 4.3795e-06 6.4952e-03 3.1207e-05 -4.0606e-05 2.2157e-03 7.3219e-05 2.0244e-06 
6.0664e-03 5.5477e-05 -3.3086e-06 1.7908e-03 2.4842e-05 2.2490e-05 6.0588e-03 2.6554e-06 3.2672e-05 1.7515e-03 -3.3735e-05 -3.1722e-05 6.0031e-03 -4.4467e-05 1.0899e-05 1.8268e-03 -6.4785e-05 -1.2519e-05 5.9647e-03 -8.4840e-05 -8.8063e-06 1.8518e-03 -7.4321e-05 -1.1549e-05 6.0145e-03 -2.2555e-05 -9.9004e-06 1.7833e-03 4.2056e-05 2.9214e-05 
5.0230e-03 9.6173e-05 -9.2493e-06 9.2548e-04 7.4199e-05 1.3382e-05 5.0419e-03 4.3052e-05 1.2764e-05 8.9380e-04 8.0138e-06 -1.8821e-05 5.0099e-03 1.2113e-05 -2.5492e-06 9.1486e-04 1.6525e-06 1.7378e-05 4.9459e-03 -6.4779e-06 5.1097e-06 9.2619e-04 -1.4706e-05 -4.4133e-05 5.0004e-03 1.6597e-05 -1.7111e-05 9.2372e-04 6.9099e-05 1.9701e-05 
3.3451e-03 7.3702e-06 1.7069e-05 -6.7809e-04 -2.7366e-05 1.2801e-05 3.3424e-03 -3.5224e-05 -1.1428e-05 -6.8990e-04 -1.7144e-05 1.4529e-05 3.3347e-03 -1.9370e-05 6.3226e-06 -7.0319e-04 -4.8913e-05 -5.3949e-06 3.3046e-03 -1.9385e-05 1.0715e-05 -7.0206e-04 -2.1719e-05 3.8881e-06 3.3429e-03 -3.1108e-05 -9.0630e-06 -6.7302e-04 -5.2707e-05 -1.9587e-05 
0.0000e+00 0.0000e+00 0.0000e+00 0.0000e+00 0.0000e+00 0.0000e+00 0.0000e+00 0.0000e+00 0.0000e+00 0.0000e+00 0.0000e+00 0.0000e+00 0.0000e+00 0.0000e+00 0.0000e+00 0.0000e+00 0.0000e+00 0.0000e+00 0.0000e+00 0.0000e+00 0.0000e+00 0.0000e+00 0.0000e+00 0.0000e+00 0.0000e+00 0.0000e+00 0.0000e+00 0.0000e+00 0.0000e+00 0.0000e+00 
0.0000e+00 0.0000e+00 0.0000e+00 0.0000e+00 0.0000e+00 0.0000e+00 0.0000e+00 0.0000e+00 0.0000e+00 0.0000e+00 0.0000e+00 0.0000e+00 0.0000e+00 0.0000e+00 0.0000e+00 0.0000e+00 0.0000e+00 0.0000e+00 0.0000e+00 0.0000e+00 0.0000e+00 0.0000e+00 0.0000e+00 0.0000e+00 0.0000e+00 0.0000e+00 0.0000e+00 0.0000e+00 0.0000e+00 0.0000e+00 
3.2272e-03 1.2564e-05 8.8663e-06 -1.0151e-03 2.8679e-05 -7.6493e-06 3.2071e-03 2.2432e-05 -2.3515e-05 -1.0416e-03 4.3543e-05 4.2241e-06 3.1622e-03 1.3804e-05 -7.6486e-06 -1.0146e-03 5.0493e-05 3.6836e-05 3.1531e-03 2.6473e-06 5.4521e-06 -1.0106e-03 4.4270e-07 -3.4117e-05 3.1438e-03 3.9836e-05 -1.7793e-06 -1.0109e-03 4.2869e-05 -1.6397e-05 
4.4645e-03 -2.2301e-05 -1.7157e-05 2.6118e-04 -2.0236e-05 -1.5214e-05 4.4651e-03 -1.7665e-05 -1.6953e-05 1.9867e-04 -3.0890e-05 1.0095e-05 4.4054e-03 -3.0541e-05 1.1003e-05 2.3948e-04 -4.7988e-05 2.3852e-05 4.3608e-03 -7.4960e-05 4.0798e-05 2.4479e-04 -3.2120e-05 -1.2911e-05 4.4212e-03 -8.2550e-06 -2.8840e-05 2.3837e-04 -1.2733e-05 -2.9150e-05 
5.1763e-03 3.1631e-05 2.6155e-05 9.4992e-04 2.7814e-05 -6.4609e-06 5.1457e-03 3.5115e-05 -1.9881e-05 8.8384e-04 3.2033e-05 4.5818e-06 5.0935e-03 1.5567e-05 1.8163e-05 8.7027e-04 2.8057e-06 4.4112e-05 5.0991e-03 1.6175e-06 2.6147e-05 9.3508e-04 2.9030e-05 -7.3658e-06 5.1081e-03 2.2490e-05 -4.6075e-05 8.8332e-04 2.0915e-05 -4.5697e-05 
5.4702e-03 7.4141e-06 4.1931e-05 1.2696e-03 -1.0779e-05 2.6151e-05 5.4572e-03 -3.3573e-05 4.1626e-06 1.2012e-03 -3.3423e-05 -4.6843e-06 5.3929e-03 -3.9242e-05 -6.2149e-06 1.2272e-03 -6.4810e-05 -1.4329e-05 5.4132e-03 -3.2627e-05 -8.8275e-06 1.2359e-03 -4.0414e-05 -3.6368e-05 5.4346e-03 -4.3018e-05 -1.6812e-05 1.2442e-03 6.2792e-06 3.2604e-05 
5.4752e-03 5.1483e-05 5.3689e-05 1.2802e-03 6.1856e-05 3.8632e-05 5.4499e-03 5.7421e-05 5.9350e-06 1.2422e-03 1.6082e-05 4.7884e-06 5.3827e-03 9.3509e-06 -5.4633e-07 1.2167e-03 -6.8556e-06 -2.1302e-05 5.4154e-03 -1.3262e-05 -3.0944e-05 1.2510e-03 4.8422e-06 -4.2270e-05 5.4234e-03 4.0327e-05 -1.9017e-05 1.2719e-03 6.2400e-05 1.6888e-05 
5.1509e-03 1.9572e-05 5.8943e-05 1.0114e-03 1.6494e-05 1.7112e-05 5.1190e-03 1.2469e-05 -1.5910e-05 9.0342e-04 -2.3679e-05 -2.0485e-05 5.0619e-03 -4.5349e-05 -3.6723e-06 9.2357e-04 -4.0652e-05 -1.9079e-05 5.0790e-03 -6.2328e-05 -2.3692e-05 9.6291e-04 -8.4073e-05 -1.8682e-05 5.1193e-03 -2.5812e-05 -2.7948e-05 9.4396e-04 2.5185e-05 1.7905e-05 
4.4009e-03 8.4757e-05 -6.1203e-06 3.2331e-04 6.7236e-05 7.9446e-06 4.3800e-03 3.2909e-05 9.4780e-06 2.6219e-04 3.6386e-05 3.2906e-05 4.3474e-03 2.4132e-05 1.0407e-06 2.5133e-04 8.9174e-06 -3.1384e-05 4.3179e-03 3.8703e-06 -5.2107e-06 2.9065e-04 -5.1785e-06 6.0904e-06 4.4296e-03 8.8968e-06 -2.3081e-05 3.2219e-04 3.3968e-05 -5.1086e-05 
3.1417e-03 -1.5521e-06 -8.2878e-08 -9.4155e-04 -1.8215e-05 6.2887e-06 3.1069e-03 -6.4279e-06 1.7551e-05 -9.5836e-04 -1.3516e-05 2.0755e-05 3.0837e-03 -9.3541e-06 3.0803e-06 -9.7276e-04 -5.3672e-05 -2.3981e-05 3.1037e-03 -3.3871e-05 -2.7105e-05 -9.5549e-04 -2.3447e-05 -4.3677e-06 3.1363e-03 -3.1704e-05 -1.4096e-05 -9.2338e-04 -5.2735e-05 -2.7112e-05 
0.0000e+00 0.0000e+00 0.0000e+00 0.0000e+00 0.0000e+00 0.0000e+00 0.0000e+00 0.0000e+00 0.0000e+00 0.0000e+00 0.0000e+00 0.0000e+00 0.0000e+00 0.0000e+00 0.0000e+00 0.0000e+00 0.0000e+00 0.0000e+00 0.0000e+00 0.0000e+00 0.0000e+00 0.0000e+00 0.0000e+00 0.0000e+00 0.0000e+00 0.0000e+00 0.0000e+00 0.0000e+00 0.0000e+00 0.0000e+00 
0.0000e+00 0.0000e+00 0.0000e+00 0.0000e+00 0.0000e+00 0.0000e+00 0.0000e+00 0.0000e+00 0.0000e+00 0.0000e+00 0.0000e+00 0.0000e+00 0.0000e+00 0.0000e+00 0.0000e+00 0.0000e+00 0.0000e+00 0.0000e+00 0.0000e+00 0.0000e+00 0.0000e+00 0.0000e+00 0.0000e+00 0.0000e+00 0.0000e+00 0.0000e+00 0.0000e+00 0.0000e+00 0.0000e+00 0.0000e+00 
2.6734e-03 3.2911e-05 -1.0579e-05 -1.5352e-03 2.8327e-05 4.0219e-06 2.6682e-03 1.6674e-05 2.4615e-05 -1.5286e-03 3.5968e-05 1.0828e-05 2.6194e-03 -2.7182e-06 1.9297e-05 -1.4567e-03 7.4523e-05 -1.6676e-05 2.5662e-03 2.6456e-05 -1.9191e-05 -1.4670e-03 -1.3620e-05 -1.7295e-05 2.6089e-03 4.8552e-05 -9.6904e-06 -1.5132e-03 2.0173e-05 1.3247e-06 
3.2115e-03 -3.0614e-05 -1.8277e-06 -9.8254e-04 -2.5753e-05 -1.9441e-06 3.2010e-03 -2.2993e-05 3.1855e-05 -9.9848e-04 -2.6809e-05 3.3987e-07 3.1456e-03 -2.0690e-05 2.3564e-05 -9.4240e-04 -5.6527e-05 -5.9741e-05 3.1023e-03 -3.7469e-05 -1.4300e-05 -9.4549e-04 -7.6629e-06 1.7320e-05 3.1403e-03 -2.8622e-05 -9.9906e-06 -9.8171e-04 -2.5397e-05 2.3006e-06 
3.4725e-03 2.6132e-05 1.4624e-06 -6.9616e-04 2.8682e-05 -5.3690e-06 3.4625e-03 3.0810e-05 2.0993e-05 -7.2581e-04 2.5657e-05 -6.5945e-06 3.3973e-03 2.7548e-05 4.3572e-06 -7.0729e-04 1.1185e-05 -4.2162e-05 3.4092e-03 9.9766e-06 -7.1456e-07 -6.9795e-04 2.2888e-05 9.3800e-06 3.4054e-03 2.6830e-05 1.4688e-05 -7.1060e-04 3.5875e-05 9.5832e-06 
3.5698e-03 -1.4449e-05 8.2824e-06 -5.7118e-04 -1.8434e-05 -5.0047e-06 3.5646e-03 -2.4834e-05 1.6852e-05 -6.0404e-04 -3.9058e-05 1.6307e-06 3.5190e-03 -3.6238e-05 1.5280e-05 -6.0382e-04 -3.9330e-05 -2.1328e-05 3.5287e-03 -4.1355e-05 -1.9965e-06 -5.8409e-04 -3.7831e-05 6.1424e-06 3.5346e-03 -2.3848e-05 1.8355e-05 -5.9432e-04 -4.6589e-06 -8.0587e-06 
3.5582e-03 4.8134e-05 1.0744e-05 -5.6424e-04 4.1192e-05 -3.5676e-06 3.5479e-03 3.3538e-05 2.7764e-05 -5.9887e-04 2.3163e-05 2.0472e-06 3.5153e-03 1.8435e-05 8.5101e-06 -6.0499e-04 9.6836e-06 -1.4297e-05 3.5291e-03 1.1377e-05 -3.5688e-06 -5.8697e-04 1.6222e-05 -9.4753e-06 3.5434e-03 2.4228e-05 2.2910e-05 -5.8479e-04 4.5172e-05 9.8499e-06 
3.4338e-03 -1.4005e-06 3.0826e-05 -6.7676e-04 -5.6548e-06 1.0268e-05 3.4190e-03 -9.4028e-06 2.1029e-05 -7.1093e-04 -1.7322e-05 5.9893e-06 3.3840e-03 -3.0770e-05 1.2005e-05 -7.1616e-04 -4.0135e-05 -1.5799e-05 3.4043e-03 -4.5140e-05 -8.1987e-06 -6.9312e-04 -4.3245e-05 -1.7302e-05 3.4262e-03 -3.2279e-05 7.0287e-06 -6.8236e-04 -1.6265e-05 4.0014e-06 